/*--------------------------------*- C++ -*----------------------------------*\
| =========                 |                                                 |
| \\      /  F ield         | OpenFOAM: The Open Source CFD Toolbox           |
|  \\    /   O peration     | Version:  2106                                  |
|   \\  /    A nd           | Website:  www.openfoam.com                      |
|    \\/     M anipulation  |                                                 |
\*---------------------------------------------------------------------------*/
FoamFile
{
    version     2.0;
    format      ascii;
    arch        "LSB;label=32;scalar=64";
    class       volVectorField;
    location    "80";
    object      D;
}
// * * * * * * * * * * * * * * * * * * * * * * * * * * * * * * * * * * * * * //

dimensions      [0 1 0 0 0 0 0];

internalField   nonuniform List<vector> 
3500
(
(0.000106071 5.02153e-06 0)
(0.000108496 4.45429e-06 0)
(0.000110715 3.69627e-06 0)
(0.000112678 2.78998e-06 0)
(0.000114368 1.76722e-06 0)
(0.000115772 6.50318e-07 0)
(0.00011688 -5.41784e-07 0)
(0.00011768 -1.79362e-06 0)
(0.000118164 -3.08995e-06 0)
(0.000118325 -4.41724e-06 0)
(0.000118159 -5.76141e-06 0)
(0.000117665 -7.1094e-06 0)
(0.000116843 -8.44748e-06 0)
(0.000115697 -9.76253e-06 0)
(0.000114233 -1.10408e-05 0)
(0.000112458 -1.22687e-05 0)
(0.000110386 -1.34324e-05 0)
(0.00010803 -1.45177e-05 0)
(0.000105408 -1.55102e-05 0)
(0.00010254 -1.63952e-05 0)
(9.9451e-05 -1.71578e-05 0)
(9.61685e-05 -1.77828e-05 0)
(9.27262e-05 -1.82554e-05 0)
(8.91606e-05 -1.85613e-05 0)
(8.55151e-05 -1.86881e-05 0)
(8.18348e-05 -1.86258e-05 0)
(7.81681e-05 -1.83688e-05 0)
(7.45566e-05 -1.79146e-05 0)
(7.10308e-05 -1.72651e-05 0)
(6.76049e-05 -1.6417e-05 0)
(0.000106043 2.96074e-06 0)
(0.000108453 2.41815e-06 0)
(0.000110682 1.80017e-06 0)
(0.000112669 1.09781e-06 0)
(0.000114385 3.15707e-07 0)
(0.000115813 -5.35919e-07 0)
(0.000116939 -1.44507e-06 0)
(0.000117754 -2.40028e-06 0)
(0.000118248 -3.39015e-06 0)
(0.000118416 -4.404e-06 0)
(0.000118253 -5.43107e-06 0)
(0.000117758 -6.46099e-06 0)
(0.000116931 -7.48317e-06 0)
(0.000115776 -8.48724e-06 0)
(0.000114299 -9.46258e-06 0)
(0.000112509 -1.03986e-05 0)
(0.000110416 -1.12846e-05 0)
(0.000108035 -1.21096e-05 0)
(0.000105384 -1.28627e-05 0)
(0.000102484 -1.35327e-05 0)
(9.93572e-05 -1.41083e-05 0)
(9.60332e-05 -1.45783e-05 0)
(9.25446e-05 -1.49316e-05 0)
(8.89287e-05 -1.51569e-05 0)
(8.52284e-05 -1.52443e-05 0)
(8.14901e-05 -1.51844e-05 0)
(7.77632e-05 -1.49702e-05 0)
(7.40945e-05 -1.45974e-05 0)
(7.05273e-05 -1.4068e-05 0)
(6.71082e-05 -1.33988e-05 0)
(0.000106046 1.18787e-06 0)
(0.000108434 7.0473e-07 0)
(0.000110648 1.97453e-07 0)
(0.000112636 -3.44796e-07 0)
(0.000114361 -9.28214e-07 0)
(0.0001158 -1.55243e-06 0)
(0.000116937 -2.21306e-06 0)
(0.000117761 -2.90401e-06 0)
(0.000118262 -3.61841e-06 0)
(0.000118434 -4.34916e-06 0)
(0.000118273 -5.08899e-06 0)
(0.000117776 -5.83063e-06 0)
(0.000116946 -6.56668e-06 0)
(0.000115785 -7.28977e-06 0)
(0.000114298 -7.9924e-06 0)
(0.000112495 -8.66708e-06 0)
(0.000110387 -9.30626e-06 0)
(0.000107989 -9.90233e-06 0)
(0.000105316 -1.04476e-05 0)
(0.000102391 -1.09345e-05 0)
(9.92366e-05 -1.1355e-05 0)
(9.58809e-05 -1.17011e-05 0)
(9.2356e-05 -1.19644e-05 0)
(8.86989e-05 -1.21362e-05 0)
(8.49519e-05 -1.22073e-05 0)
(8.11622e-05 -1.21683e-05 0)
(7.73819e-05 -1.20114e-05 0)
(7.3666e-05 -1.17327e-05 0)
(7.00727e-05 -1.1337e-05 0)
(6.66657e-05 -1.08412e-05 0)
(0.000106041 -4.8469e-07 0)
(0.000108418 -8.65036e-07 0)
(0.000110616 -1.24858e-06 0)
(0.000112593 -1.63828e-06 0)
(0.000114314 -2.04001e-06 0)
(0.000115754 -2.45716e-06 0)
(0.000116894 -2.89033e-06 0)
(0.000117721 -3.33809e-06 0)
(0.000118224 -3.79781e-06 0)
(0.000118398 -4.26612e-06 0)
(0.000118237 -4.73925e-06 0)
(0.00011774 -5.21315e-06 0)
(0.000116907 -5.68361e-06 0)
(0.000115741 -6.14634e-06 0)
(0.000114248 -6.59698e-06 0)
(0.000112437 -7.03115e-06 0)
(0.00011032 -7.44448e-06 0)
(0.000107909 -7.8326e-06 0)
(0.000105223 -8.19115e-06 0)
(0.000102282 -8.5157e-06 0)
(9.9109e-05 -8.80166e-06 0)
(9.5731e-05 -9.04408e-06 0)
(9.21792e-05 -9.2373e-06 0)
(8.84889e-05 -9.37453e-06 0)
(8.47015e-05 -9.44752e-06 0)
(8.08643e-05 -9.44669e-06 0)
(7.70325e-05 -9.36239e-06 0)
(7.32695e-05 -9.1882e-06 0)
(6.96455e-05 -8.92475e-06 0)
(6.62345e-05 -8.58451e-06 0)
(0.000106014 -2.14264e-06 0)
(0.00010839 -2.39309e-06 0)
(0.000110577 -2.63445e-06 0)
(0.000112541 -2.86421e-06 0)
(0.000114251 -3.08546e-06 0)
(0.000115684 -3.30205e-06 0)
(0.00011682 -3.51706e-06 0)
(0.000117644 -3.73238e-06 0)
(0.000118147 -3.94889e-06 0)
(0.00011832 -4.16662e-06 0)
(0.000118158 -4.38507e-06 0)
(0.00011766 -4.60338e-06 0)
(0.000116825 -4.82044e-06 0)
(0.000115657 -5.03504e-06 0)
(0.000114162 -5.24589e-06 0)
(0.000112347 -5.45172e-06 0)
(0.000110225 -5.65128e-06 0)
(0.00010781 -5.84337e-06 0)
(0.000105118 -6.02684e-06 0)
(0.000102169 -6.2005e-06 0)
(9.89866e-05 -6.36303e-06 0)
(9.55963e-05 -6.51269e-06 0)
(9.20273e-05 -6.64688e-06 0)
(8.8313e-05 -6.76143e-06 0)
(8.44919e-05 -6.84978e-06 0)
(8.06098e-05 -6.90222e-06 0)
(7.67233e-05 -6.90609e-06 0)
(7.29019e-05 -6.84805e-06 0)
(6.92275e-05 -6.71979e-06 0)
(6.57862e-05 -6.52262e-06 0)
(0.000105957 -3.84094e-06 0)
(0.00010834 -3.94574e-06 0)
(0.000110521 -4.02978e-06 0)
(0.000112472 -4.08779e-06 0)
(0.00011417 -4.12125e-06 0)
(0.000115591 -4.13398e-06 0)
(0.000116718 -4.13046e-06 0)
(0.000117536 -4.11493e-06 0)
(0.000118035 -4.09098e-06 0)
(0.000118205 -4.06158e-06 0)
(0.000118042 -4.02918e-06 0)
(0.000117543 -3.99592e-06 0)
(0.000116708 -3.96366e-06 0)
(0.00011554 -3.9342e-06 0)
(0.000114045 -3.90925e-06 0)
(0.000112231 -3.89058e-06 0)
(0.00011011 -3.87997e-06 0)
(0.000107696 -3.87934e-06 0)
(0.000105005 -3.89064e-06 0)
(0.000102057 -3.91588e-06 0)
(9.88751e-05 -3.95704e-06 0)
(9.5483e-05 -4.01577e-06 0)
(9.19084e-05 -4.09309e-06 0)
(8.81814e-05 -4.18851e-06 0)
(8.43364e-05 -4.29877e-06 0)
(8.04143e-05 -4.41585e-06 0)
(7.6468e-05 -4.52476e-06 0)
(7.2569e-05 -4.60307e-06 0)
(6.8811e-05 -4.62528e-06 0)
(6.53017e-05 -4.57723e-06 0)
(0.000105871 -5.62798e-06 0)
(0.000108265 -5.57676e-06 0)
(0.000110441 -5.49033e-06 0)
(0.000112381 -5.36271e-06 0)
(0.000114063 -5.19593e-06 0)
(0.00011547 -4.99458e-06 0)
(0.000116585 -4.76456e-06 0)
(0.000117394 -4.51183e-06 0)
(0.000117886 -4.24224e-06 0)
(0.000118053 -3.96119e-06 0)
(0.000117888 -3.67385e-06 0)
(0.000117388 -3.38504e-06 0)
(0.000116554 -3.09955e-06 0)
(0.000115388 -2.82201e-06 0)
(0.000113897 -2.55714e-06 0)
(0.000112088 -2.30961e-06 0)
(0.000109973 -2.08422e-06 0)
(0.000107566 -1.88584e-06 0)
(0.000104884 -1.71946e-06 0)
(0.000101946 -1.59018e-06 0)
(9.87734e-05 -1.50316e-06 0)
(9.53907e-05 -1.46359e-06 0)
(9.18234e-05 -1.4764e-06 0)
(8.80985e-05 -1.54578e-06 0)
(8.42448e-05 -1.67392e-06 0)
(8.02948e-05 -1.85838e-06 0)
(7.629e-05 -2.0871e-06 0)
(7.22937e-05 -2.33196e-06 0)
(6.84067e-05 -2.54646e-06 0)
(6.47707e-05 -2.68012e-06 0)
(0.000105759 -7.55533e-06 0)
(0.000108162 -7.33809e-06 0)
(0.000110331 -7.06598e-06 0)
(0.000112255 -6.73576e-06 0)
(0.00011392 -6.35217e-06 0)
(0.000115311 -5.9213e-06 0)
(0.000116412 -5.45067e-06 0)
(0.000117211 -4.9476e-06 0)
(0.000117695 -4.42001e-06 0)
(0.000117856 -3.87526e-06 0)
(0.000117689 -3.32115e-06 0)
(0.000117189 -2.76493e-06 0)
(0.000116358 -2.21435e-06 0)
(0.000115196 -1.67669e-06 0)
(0.000113712 -1.15973e-06 0)
(0.000111912 -6.70881e-07 0)
(0.000109808 -2.18004e-07 0)
(0.000107414 1.9127e-07 0)
(0.000104747 5.48947e-07 0)
(0.000101827 8.47114e-07 0)
(9.86736e-05 1.07753e-06 0)
(9.53113e-05 1.23186e-06 0)
(9.17651e-05 1.3014e-06 0)
(8.80591e-05 1.27718e-06 0)
(8.42183e-05 1.1503e-06 0)
(8.02644e-05 9.13473e-07 0)
(7.6221e-05 5.66152e-07 0)
(7.21239e-05 1.26009e-07 0)
(6.80577e-05 -3.5017e-07 0)
(6.42005e-05 -7.58926e-07 0)
(0.000105629 -9.68706e-06 0)
(0.000108028 -9.28468e-06 0)
(0.00011018 -8.80472e-06 0)
(0.000112084 -8.25109e-06 0)
(0.000113728 -7.63015e-06 0)
(0.000115101 -6.95049e-06 0)
(0.000116186 -6.2197e-06 0)
(0.000116973 -5.44748e-06 0)
(0.000117448 -4.64242e-06 0)
(0.000117604 -3.81491e-06 0)
(0.000117433 -2.97423e-06 0)
(0.000116935 -2.1311e-06 0)
(0.000116106 -1.29521e-06 0)
(0.000114952 -4.77458e-07 0)
(0.000113477 3.12179e-07 0)
(0.00011169 1.06278e-06 0)
(0.000109601 1.76413e-06 0)
(0.000107227 2.40534e-06 0)
(0.000104581 2.97598e-06 0)
(0.000101686 3.46519e-06 0)
(9.85604e-05 3.86223e-06 0)
(9.52297e-05 4.15606e-06 0)
(9.17165e-05 4.33511e-06 0)
(8.80471e-05 4.38713e-06 0)
(8.42419e-05 4.29787e-06 0)
(8.0319e-05 4.05102e-06 0)
(7.62817e-05 3.62708e-06 0)
(7.21261e-05 3.01128e-06 0)
(6.78654e-05 2.21543e-06 0)
(6.36529e-05 1.34564e-06 0)
(0.000105486 -1.20959e-05 0)
(0.000107848 -1.14722e-05 0)
(0.000109972 -1.07573e-05 0)
(0.00011185 -9.95555e-06 0)
(0.000113472 -9.07481e-06 0)
(0.000114823 -8.12241e-06 0)
(0.000115892 -7.10768e-06 0)
(0.000116664 -6.04026e-06 0)
(0.000117129 -4.93168e-06 0)
(0.000117277 -3.79347e-06 0)
(0.000117104 -2.63853e-06 0)
(0.000116606 -1.4794e-06 0)
(0.000115783 -3.29545e-07 0)
(0.000114636 7.97979e-07 0)
(0.000113174 1.88953e-06 0)
(0.000111403 2.93185e-06 0)
(0.000109335 3.91132e-06 0)
(0.000106984 4.81461e-06 0)
(0.000104367 5.62829e-06 0)
(0.000101503 6.33911e-06 0)
(9.84144e-05 6.93395e-06 0)
(9.51228e-05 7.39968e-06 0)
(9.16544e-05 7.72336e-06 0)
(8.80328e-05 7.89152e-06 0)
(8.42821e-05 7.89015e-06 0)
(8.04177e-05 7.70219e-06 0)
(7.64411e-05 7.30437e-06 0)
(7.23201e-05 6.65533e-06 0)
(6.798e-05 5.67631e-06 0)
(6.33769e-05 4.21715e-06 0)
(1.95685e-05 -4.73871e-05 0)
(1.95116e-05 -4.94382e-05 0)
(1.9381e-05 -5.12074e-05 0)
(1.9201e-05 -5.28014e-05 0)
(1.89621e-05 -5.42521e-05 0)
(1.86522e-05 -5.55615e-05 0)
(1.82587e-05 -5.67193e-05 0)
(1.77692e-05 -5.7711e-05 0)
(1.71856e-05 -5.85281e-05 0)
(1.6592e-05 -5.92122e-05 0)
(2.14826e-05 -4.54042e-05 0)
(2.14144e-05 -4.77338e-05 0)
(2.12726e-05 -4.97714e-05 0)
(2.10863e-05 -5.15795e-05 0)
(2.08576e-05 -5.32095e-05 0)
(2.05813e-05 -5.46841e-05 0)
(2.02522e-05 -5.60085e-05 0)
(1.98715e-05 -5.71816e-05 0)
(1.94596e-05 -5.82122e-05 0)
(1.90795e-05 -5.91456e-05 0)
(2.36078e-05 -4.34294e-05 0)
(2.35288e-05 -4.59206e-05 0)
(2.33797e-05 -4.81731e-05 0)
(2.31868e-05 -5.0197e-05 0)
(2.29603e-05 -5.2025e-05 0)
(2.2703e-05 -5.36839e-05 0)
(2.2416e-05 -5.51891e-05 0)
(2.21048e-05 -5.65496e-05 0)
(2.1786e-05 -5.7778e-05 0)
(2.14893e-05 -5.89052e-05 0)
(2.58979e-05 -4.14411e-05 0)
(2.58131e-05 -4.4045e-05 0)
(2.56625e-05 -4.64593e-05 0)
(2.54673e-05 -4.86718e-05 0)
(2.52406e-05 -5.06936e-05 0)
(2.4991e-05 -5.25427e-05 0)
(2.47242e-05 -5.42356e-05 0)
(2.44468e-05 -5.57852e-05 0)
(2.41694e-05 -5.72044e-05 0)
(2.39063e-05 -5.85149e-05 0)
(2.83303e-05 -3.94321e-05 0)
(2.82406e-05 -4.21255e-05 0)
(2.80913e-05 -4.46649e-05 0)
(2.78977e-05 -4.70334e-05 0)
(2.76723e-05 -4.92293e-05 0)
(2.74259e-05 -5.12603e-05 0)
(2.71669e-05 -5.31379e-05 0)
(2.69028e-05 -5.48742e-05 0)
(2.6642e-05 -5.64808e-05 0)
(2.63936e-05 -5.79758e-05 0)
(3.08885e-05 -3.74004e-05 0)
(3.07939e-05 -4.01696e-05 0)
(3.06459e-05 -4.28101e-05 0)
(3.0456e-05 -4.53064e-05 0)
(3.02341e-05 -4.76522e-05 0)
(2.99907e-05 -4.98478e-05 0)
(2.97353e-05 -5.18989e-05 0)
(2.94764e-05 -5.38141e-05 0)
(2.92221e-05 -5.56036e-05 0)
(2.89814e-05 -5.72833e-05 0)
(3.35591e-05 -3.53468e-05 0)
(3.34592e-05 -3.81815e-05 0)
(3.33119e-05 -4.09063e-05 0)
(3.31259e-05 -4.35088e-05 0)
(3.2909e-05 -4.59815e-05 0)
(3.26701e-05 -4.83214e-05 0)
(3.24186e-05 -5.05299e-05 0)
(3.21633e-05 -5.26118e-05 0)
(3.19131e-05 -5.45752e-05 0)
(3.16781e-05 -5.64352e-05 0)
(3.63298e-05 -3.32737e-05 0)
(3.62246e-05 -3.61652e-05 0)
(3.60771e-05 -3.89616e-05 0)
(3.58947e-05 -4.16531e-05 0)
(3.56833e-05 -4.42334e-05 0)
(3.54503e-05 -4.66979e-05 0)
(3.52042e-05 -4.90457e-05 0)
(3.49538e-05 -5.12789e-05 0)
(3.47085e-05 -5.34038e-05 0)
(3.44793e-05 -5.54343e-05 0)
(3.91897e-05 -3.11842e-05 0)
(3.90794e-05 -3.41245e-05 0)
(3.8931e-05 -3.6982e-05 0)
(3.87514e-05 -3.9749e-05 0)
(3.85453e-05 -4.24205e-05 0)
(3.8319e-05 -4.4992e-05 0)
(3.80797e-05 -4.74614e-05 0)
(3.78358e-05 -4.98294e-05 0)
(3.75969e-05 -5.21008e-05 0)
(3.73746e-05 -5.42884e-05 0)
(4.21287e-05 -2.90819e-05 0)
(4.20134e-05 -3.20635e-05 0)
(4.18637e-05 -3.49727e-05 0)
(4.1686e-05 -3.78038e-05 0)
(4.14846e-05 -4.05529e-05 0)
(4.12649e-05 -4.32161e-05 0)
(4.10331e-05 -4.5791e-05 0)
(4.0797e-05 -4.82774e-05 0)
(4.05656e-05 -5.06795e-05 0)
(4.0351e-05 -5.30088e-05 0)
(4.51377e-05 -2.69705e-05 0)
(4.50175e-05 -2.99861e-05 0)
(4.4866e-05 -3.29387e-05 0)
(4.46894e-05 -3.58239e-05 0)
(4.44918e-05 -3.86389e-05 0)
(4.42781e-05 -4.13805e-05 0)
(4.40537e-05 -4.40464e-05 0)
(4.38256e-05 -4.66361e-05 0)
(4.36025e-05 -4.91533e-05 0)
(4.33959e-05 -5.16083e-05 0)
(4.82085e-05 -2.48542e-05 0)
(4.80834e-05 -2.78967e-05 0)
(4.79295e-05 -3.08845e-05 0)
(4.77531e-05 -3.38147e-05 0)
(4.75583e-05 -3.66853e-05 0)
(4.73495e-05 -3.94936e-05 0)
(4.71318e-05 -4.22377e-05 0)
(4.69115e-05 -4.49169e-05 0)
(4.66965e-05 -4.75347e-05 0)
(4.64977e-05 -5.01002e-05 0)
(5.13336e-05 -2.27374e-05 0)
(5.12034e-05 -2.57995e-05 0)
(5.10466e-05 -2.88148e-05 0)
(5.08694e-05 -3.17814e-05 0)
(5.06761e-05 -3.4698e-05 0)
(5.0471e-05 -3.75626e-05 0)
(5.02589e-05 -4.03735e-05 0)
(5.00455e-05 -4.31299e-05 0)
(4.98381e-05 -4.5835e-05 0)
(4.96465e-05 -4.8497e-05 0)
(5.45063e-05 -2.06252e-05 0)
(5.43707e-05 -2.36994e-05 0)
(5.421e-05 -2.67341e-05 0)
(5.40309e-05 -2.97286e-05 0)
(5.38378e-05 -3.26823e-05 0)
(5.3635e-05 -3.55936e-05 0)
(5.34272e-05 -3.8461e-05 0)
(5.32196e-05 -4.12835e-05 0)
(5.30188e-05 -4.40642e-05 0)
(5.2834e-05 -4.68101e-05 0)
(5.772e-05 -1.85233e-05 0)
(5.75788e-05 -2.16014e-05 0)
(5.74133e-05 -2.46472e-05 0)
(5.72309e-05 -2.76611e-05 0)
(5.70365e-05 -3.06432e-05 0)
(5.68346e-05 -3.35921e-05 0)
(5.66296e-05 -3.65064e-05 0)
(5.64265e-05 -3.93852e-05 0)
(5.62313e-05 -4.22309e-05 0)
(5.60526e-05 -4.50496e-05 0)
(6.09689e-05 -1.64383e-05 0)
(6.08212e-05 -1.95113e-05 0)
(6.06499e-05 -2.25592e-05 0)
(6.04628e-05 -2.55838e-05 0)
(6.02656e-05 -2.85854e-05 0)
(6.0063e-05 -3.15632e-05 0)
(5.98593e-05 -3.45154e-05 0)
(5.96594e-05 -3.74411e-05 0)
(5.94689e-05 -4.03423e-05 0)
(5.92956e-05 -4.3224e-05 0)
(6.42468e-05 -1.43783e-05 0)
(6.40919e-05 -1.74358e-05 0)
(6.39134e-05 -2.0476e-05 0)
(6.37202e-05 -2.35016e-05 0)
(6.35186e-05 -2.65138e-05 0)
(6.33136e-05 -2.95115e-05 0)
(6.31098e-05 -3.2493e-05 0)
(6.29118e-05 -3.54569e-05 0)
(6.27249e-05 -3.84048e-05 0)
(6.25566e-05 -4.13408e-05 0)
(6.75472e-05 -1.23527e-05 0)
(6.73842e-05 -1.53828e-05 0)
(6.71972e-05 -1.8404e-05 0)
(6.69963e-05 -2.14204e-05 0)
(6.67885e-05 -2.44334e-05 0)
(6.65796e-05 -2.74419e-05 0)
(6.63741e-05 -3.04439e-05 0)
(6.61769e-05 -3.34376e-05 0)
(6.59929e-05 -3.6424e-05 0)
(6.58291e-05 -3.94062e-05 0)
(7.08629e-05 -1.03731e-05 0)
(7.06908e-05 -1.33616e-05 0)
(7.04939e-05 -1.6351e-05 0)
(7.02837e-05 -1.93465e-05 0)
(7.00682e-05 -2.23496e-05 0)
(6.98537e-05 -2.53592e-05 0)
(6.96453e-05 -2.83728e-05 0)
(6.94477e-05 -3.13879e-05 0)
(6.92657e-05 -3.44049e-05 0)
(6.91063e-05 -3.74258e-05 0)
(7.41851e-05 -8.45281e-06 0)
(7.4003e-05 -1.13834e-05 0)
(7.37952e-05 -1.4326e-05 0)
(7.35744e-05 -1.72872e-05 0)
(7.33498e-05 -2.02686e-05 0)
(7.31282e-05 -2.32687e-05 0)
(7.29155e-05 -2.62844e-05 0)
(7.27165e-05 -2.93123e-05 0)
(7.2536e-05 -3.2352e-05 0)
(7.2381e-05 -3.54042e-05 0)
(7.75028e-05 -6.60784e-06 0)
(7.73103e-05 -9.46136e-06 0)
(7.70911e-05 -1.234e-05 0)
(7.68591e-05 -1.52514e-05 0)
(7.66242e-05 -1.81975e-05 0)
(7.63944e-05 -2.11762e-05 0)
(7.61762e-05 -2.41836e-05 0)
(7.59749e-05 -2.72154e-05 0)
(7.57955e-05 -3.02697e-05 0)
(7.5645e-05 -3.33461e-05 0)
(8.08018e-05 -4.85616e-06 0)
(8.05992e-05 -7.61115e-06 0)
(8.03694e-05 -1.04062e-05 0)
(8.01266e-05 -1.32501e-05 0)
(7.98814e-05 -1.61449e-05 0)
(7.96428e-05 -1.90884e-05 0)
(7.94182e-05 -2.2076e-05 0)
(7.92139e-05 -2.51017e-05 0)
(7.90352e-05 -2.81623e-05 0)
(7.88894e-05 -3.12554e-05 0)
(8.40634e-05 -3.21715e-06 0)
(8.38525e-05 -5.85063e-06 0)
(8.36149e-05 -8.54064e-06 0)
(8.33639e-05 -1.12968e-05 0)
(8.31099e-05 -1.41215e-05 0)
(8.28627e-05 -1.70133e-05 0)
(8.26313e-05 -1.99672e-05 0)
(8.24233e-05 -2.29761e-05 0)
(8.22451e-05 -2.6034e-05 0)
(8.21044e-05 -2.91363e-05 0)
(8.72639e-05 -1.70984e-06 0)
(8.70485e-05 -4.19934e-06 0)
(8.68089e-05 -6.76237e-06 0)
(8.65551e-05 -9.40847e-06 0)
(8.62964e-05 -1.21412e-05 0)
(8.60428e-05 -1.49612e-05 0)
(8.58049e-05 -1.78646e-05 0)
(8.55927e-05 -2.08434e-05 0)
(8.54145e-05 -2.38889e-05 0)
(8.52792e-05 -2.69927e-05 0)
(9.03748e-05 -3.49859e-07 0)
(9.01612e-05 -2.67688e-06 0)
(8.99286e-05 -5.09296e-06 0)
(8.96813e-05 -7.6064e-06 0)
(8.94256e-05 -1.02226e-05 0)
(8.91705e-05 -1.29461e-05 0)
(8.89282e-05 -1.5777e-05 0)
(8.87116e-05 -1.87088e-05 0)
(8.85326e-05 -2.17306e-05 0)
(8.84027e-05 -2.48282e-05 0)
(9.33644e-05 8.54877e-07 0)
(9.31614e-05 -1.29998e-06 0)
(9.29482e-05 -3.55503e-06 0)
(9.27206e-05 -5.91581e-06 0)
(9.24796e-05 -8.38979e-06 0)
(9.22319e-05 -1.09876e-05 0)
(9.19899e-05 -1.37172e-05 0)
(9.17699e-05 -1.65786e-05 0)
(9.1589e-05 -1.95615e-05 0)
(9.14638e-05 -2.26453e-05 0)
(9.62014e-05 1.90988e-06 0)
(9.60201e-05 -7.83059e-08 0)
(9.58413e-05 -2.16908e-06 0)
(9.56492e-05 -4.36408e-06 0)
(9.54381e-05 -6.67305e-06 0)
(9.52107e-05 -9.1136e-06 0)
(9.4978e-05 -1.17054e-05 0)
(9.4758e-05 -1.4462e-05 0)
(9.45742e-05 -1.73827e-05 0)
(9.44525e-05 -2.04434e-05 0)
(9.8862e-05 2.84073e-06 0)
(9.87155e-05 9.90819e-07 0)
(9.85866e-05 -9.48618e-07 0)
(9.84453e-05 -2.97652e-06 0)
(9.82793e-05 -5.10599e-06 0)
(9.80875e-05 -7.36121e-06 0)
(9.78772e-05 -9.77366e-06 0)
(9.76654e-05 -1.23767e-05 0)
(9.74797e-05 -1.51946e-05 0)
(9.736e-05 -1.82163e-05 0)
(0.000101342 3.70174e-06 0)
(0.000101244 1.92822e-06 0)
(0.000101176 1.06194e-07 0)
(0.000101095 -1.76897e-06 0)
(0.000100984 -3.71847e-06 0)
(0.00010084 -5.77261e-06 0)
(0.000100667 -7.97e-06 0)
(0.000100477 -1.03605e-05 0)
(0.000100295 -1.30049e-05 0)
(0.000100178 -1.59456e-05 0)
(0.00010368 4.58742e-06 0)
(0.000103635 2.78039e-06 0)
(0.000103624 1.018e-06 0)
(0.000103597 -7.35441e-07 0)
(0.000103539 -2.52107e-06 0)
(0.000103448 -4.37755e-06 0)
(0.000103323 -6.34603e-06 0)
(0.000103169 -8.47804e-06 0)
(0.000103002 -1.0851e-05 0)
(0.000102886 -1.35859e-05 0)
(6.39377e-05 -1.52665e-05 0)
(6.35402e-05 -1.25353e-05 0)
(6.31509e-05 -1.02055e-05 0)
(6.27431e-05 -8.13774e-06 0)
(6.22921e-05 -6.24232e-06 0)
(6.17736e-05 -4.45497e-06 0)
(6.11617e-05 -2.72894e-06 0)
(6.0426e-05 -1.03749e-06 0)
(5.95327e-05 5.93612e-07 0)
(5.84723e-05 1.95713e-06 0)
(6.05603e-05 -1.37682e-05 0)
(6.01824e-05 -1.14551e-05 0)
(5.98306e-05 -9.42005e-06 0)
(5.94611e-05 -7.58642e-06 0)
(5.90467e-05 -5.89081e-06 0)
(5.85656e-05 -4.28616e-06 0)
(5.8e-05 -2.74703e-06 0)
(5.73381e-05 -1.28682e-06 0)
(5.65841e-05 3.9757e-09 0)
(5.57655e-05 9.42272e-07 0)
(5.78916e-05 -1.21148e-05 0)
(5.75007e-05 -1.02601e-05 0)
(5.71629e-05 -8.56772e-06 0)
(5.68302e-05 -7.00624e-06 0)
(5.64736e-05 -5.54186e-06 0)
(5.60762e-05 -4.14884e-06 0)
(5.56313e-05 -2.82183e-06 0)
(5.51432e-05 -1.59189e-06 0)
(5.46242e-05 -5.3908e-07 0)
(5.40797e-05 2.44042e-07 0)
(5.58841e-05 -1.03802e-05 0)
(5.54829e-05 -8.98999e-06 0)
(5.5152e-05 -7.6709e-06 0)
(5.485e-05 -6.41685e-06 0)
(5.45501e-05 -5.21714e-06 0)
(5.42383e-05 -4.06475e-06 0)
(5.39116e-05 -2.96632e-06 0)
(5.35726e-05 -1.95068e-06 0)
(5.32194e-05 -1.06692e-06 0)
(5.2834e-05 -3.50954e-07 0)
(5.45006e-05 -8.6175e-06 0)
(5.40981e-05 -7.68742e-06 0)
(5.37743e-05 -6.75567e-06 0)
(5.34939e-05 -5.83079e-06 0)
(5.32326e-05 -4.91794e-06 0)
(5.2978e-05 -4.0229e-06 0)
(5.27258e-05 -3.15612e-06 0)
(5.24729e-05 -2.33495e-06 0)
(5.22067e-05 -1.58033e-06 0)
(5.1899e-05 -9.03035e-07 0)
(5.37154e-05 -6.86656e-06 0)
(5.332e-05 -6.38911e-06 0)
(5.30036e-05 -5.84548e-06 0)
(5.27325e-05 -5.25484e-06 0)
(5.24835e-05 -4.63471e-06 0)
(5.22443e-05 -4.00037e-06 0)
(5.20107e-05 -3.36251e-06 0)
(5.17786e-05 -2.72502e-06 0)
(5.15343e-05 -2.08485e-06 0)
(5.12506e-05 -1.43866e-06 0)
(5.35142e-05 -5.16127e-06 0)
(5.31335e-05 -5.12758e-06 0)
(5.28242e-05 -4.96105e-06 0)
(5.25494e-05 -4.69295e-06 0)
(5.22851e-05 -4.35468e-06 0)
(5.20191e-05 -3.97248e-06 0)
(5.1748e-05 -3.55942e-06 0)
(5.14726e-05 -3.10774e-06 0)
(5.11887e-05 -2.58863e-06 0)
(5.08763e-05 -1.9777e-06 0)
(5.38956e-05 -3.53651e-06 0)
(5.35367e-05 -3.93581e-06 0)
(5.32321e-05 -4.12286e-06 0)
(5.29415e-05 -4.14958e-06 0)
(5.26406e-05 -4.06687e-06 0)
(5.23157e-05 -3.91628e-06 0)
(5.19618e-05 -3.71987e-06 0)
(5.15822e-05 -3.466e-06 0)
(5.1186e-05 -3.09809e-06 0)
(5.0775e-05 -2.54457e-06 0)
(5.48729e-05 -2.03579e-06 0)
(5.45353e-05 -2.84942e-06 0)
(5.42251e-05 -3.35126e-06 0)
(5.39076e-05 -3.63237e-06 0)
(5.35617e-05 -3.76827e-06 0)
(5.3171e-05 -3.81818e-06 0)
(5.2722e-05 -3.81967e-06 0)
(5.22071e-05 -3.77465e-06 0)
(5.16325e-05 -3.61489e-06 0)
(5.10213e-05 -3.19158e-06 0)
(5.64741e-05 -7.20216e-07 0)
(5.61225e-05 -1.89828e-06 0)
(5.57793e-05 -2.66103e-06 0)
(5.54265e-05 -3.15302e-06 0)
(5.50461e-05 -3.47204e-06 0)
(5.46194e-05 -3.69016e-06 0)
(5.41262e-05 -3.86291e-06 0)
(5.35435e-05 -4.02481e-06 0)
(5.28484e-05 -4.16131e-06 0)
(5.20435e-05 -4.09633e-06 0)
(5.37708e-05 1.86367e-06 0)
(4.80376e-05 1.44245e-06 0)
(4.2884e-05 1.76423e-06 0)
(3.77928e-05 2.02896e-06 0)
(3.27722e-05 1.93429e-06 0)
(2.78721e-05 1.5065e-06 0)
(2.31063e-05 8.68679e-07 0)
(1.84864e-05 1.81279e-07 0)
(1.39981e-05 -3.18693e-07 0)
(9.44294e-06 -3.03559e-07 0)
(5.32329e-05 1.86182e-06 0)
(4.79466e-05 1.79606e-06 0)
(4.28056e-05 2.14366e-06 0)
(3.77652e-05 2.40157e-06 0)
(3.282e-05 2.29629e-06 0)
(2.7981e-05 1.85892e-06 0)
(2.32441e-05 1.21276e-06 0)
(1.86097e-05 5.16129e-07 0)
(1.40682e-05 2.24718e-10 0)
(9.56872e-06 -6.51527e-08 0)
(5.23932e-05 1.59587e-06 0)
(4.77261e-05 2.06688e-06 0)
(4.26992e-05 2.51795e-06 0)
(3.77251e-05 2.77463e-06 0)
(3.28543e-05 2.65579e-06 0)
(2.80749e-05 2.20919e-06 0)
(2.33667e-05 1.55743e-06 0)
(1.87233e-05 8.51441e-07 0)
(1.41581e-05 2.98636e-07 0)
(9.76273e-06 9.99358e-08 0)
(5.15464e-05 1.22697e-06 0)
(4.74132e-05 2.25953e-06 0)
(4.25558e-05 2.87949e-06 0)
(3.76702e-05 3.14619e-06 0)
(3.28786e-05 3.01257e-06 0)
(2.81593e-05 2.55728e-06 0)
(2.34814e-05 1.90224e-06 0)
(1.88351e-05 1.18526e-06 0)
(1.42607e-05 5.77863e-07 0)
(9.94247e-06 2.37585e-07 0)
(5.08167e-05 8.16843e-07 0)
(4.70496e-05 2.39776e-06 0)
(4.23745e-05 3.22603e-06 0)
(3.76006e-05 3.51334e-06 0)
(3.28962e-05 3.36549e-06 0)
(2.82387e-05 2.90263e-06 0)
(2.35932e-05 2.24637e-06 0)
(1.895e-05 1.51729e-06 0)
(1.43669e-05 8.44575e-07 0)
(1.00757e-05 3.64525e-07 0)
(5.02414e-05 3.96289e-07 0)
(4.66595e-05 2.51076e-06 0)
(4.21574e-05 3.55962e-06 0)
(3.75179e-05 3.87329e-06 0)
(3.29107e-05 3.71321e-06 0)
(2.83174e-05 3.24468e-06 0)
(2.37071e-05 2.58927e-06 0)
(1.90723e-05 1.84873e-06 0)
(1.44737e-05 1.10737e-06 0)
(1.01532e-05 4.87229e-07 0)
(4.98168e-05 -1.06271e-08 0)
(4.62494e-05 2.62793e-06 0)
(4.19113e-05 3.88361e-06 0)
(3.74276e-05 4.22322e-06 0)
(3.29265e-05 4.05417e-06 0)
(2.83991e-05 3.58268e-06 0)
(2.38263e-05 2.93022e-06 0)
(1.92051e-05 2.18117e-06 0)
(1.45836e-05 1.37527e-06 0)
(1.01745e-05 6.09731e-07 0)
(4.9493e-05 -3.76917e-07 0)
(4.58032e-05 2.77577e-06 0)
(4.16435e-05 4.19993e-06 0)
(3.73369e-05 4.56049e-06 0)
(3.29486e-05 4.38715e-06 0)
(2.84879e-05 3.91612e-06 0)
(2.39543e-05 3.26865e-06 0)
(1.93523e-05 2.51592e-06 0)
(1.47073e-05 1.65778e-06 0)
(1.01495e-05 7.38909e-07 0)
(4.91498e-05 -6.52415e-07 0)
(4.52948e-05 2.97327e-06 0)
(4.13675e-05 4.50659e-06 0)
(3.72567e-05 4.88277e-06 0)
(3.2983e-05 4.71139e-06 0)
(2.85872e-05 4.24471e-06 0)
(2.40927e-05 3.60393e-06 0)
(1.95158e-05 2.85292e-06 0)
(1.48606e-05 1.96338e-06 0)
(1.01114e-05 8.93423e-07 0)
(4.85192e-05 -7.08311e-07 0)
(4.47026e-05 3.22018e-06 0)
(4.11044e-05 4.79658e-06 0)
(3.72003e-05 5.1887e-06 0)
(3.30361e-05 5.02707e-06 0)
(2.87008e-05 4.56867e-06 0)
(2.42433e-05 3.93562e-06 0)
(1.96959e-05 3.19017e-06 0)
(1.50603e-05 2.29557e-06 0)
(1.01526e-05 1.12934e-06 0)
(1.04943e-05 -5.07721e-05 0)
(1.04924e-05 -5.16574e-05 0)
(1.05378e-05 -5.26223e-05 0)
(1.06643e-05 -5.36272e-05 0)
(1.08909e-05 -5.46152e-05 0)
(1.12244e-05 -5.5524e-05 0)
(1.1661e-05 -5.62926e-05 0)
(1.21881e-05 -5.68651e-05 0)
(1.27854e-05 -5.71934e-05 0)
(1.34264e-05 -5.72398e-05 0)
(1.12148e-05 -5.07633e-05 0)
(1.12248e-05 -5.16537e-05 0)
(1.12755e-05 -5.26377e-05 0)
(1.13837e-05 -5.36668e-05 0)
(1.15583e-05 -5.46805e-05 0)
(1.18022e-05 -5.56147e-05 0)
(1.21124e-05 -5.64065e-05 0)
(1.24802e-05 -5.69979e-05 0)
(1.28913e-05 -5.73392e-05 0)
(1.33268e-05 -5.73918e-05 0)
(1.18972e-05 -5.07228e-05 0)
(1.18904e-05 -5.1621e-05 0)
(1.19183e-05 -5.26302e-05 0)
(1.19889e-05 -5.36873e-05 0)
(1.21041e-05 -5.4728e-05 0)
(1.22629e-05 -5.56873e-05 0)
(1.24623e-05 -5.65015e-05 0)
(1.2696e-05 -5.71113e-05 0)
(1.29542e-05 -5.74649e-05 0)
(1.32225e-05 -5.75216e-05 0)
(1.25509e-05 -5.06282e-05 0)
(1.25197e-05 -5.15468e-05 0)
(1.25162e-05 -5.25912e-05 0)
(1.25425e-05 -5.36843e-05 0)
(1.25958e-05 -5.47578e-05 0)
(1.26723e-05 -5.57468e-05 0)
(1.27692e-05 -5.65878e-05 0)
(1.28829e-05 -5.72202e-05 0)
(1.30068e-05 -5.75885e-05 0)
(1.31291e-05 -5.76482e-05 0)
(1.32073e-05 -5.04651e-05 0)
(1.31505e-05 -5.14267e-05 0)
(1.31156e-05 -5.25196e-05 0)
(1.30979e-05 -5.3658e-05 0)
(1.309e-05 -5.47713e-05 0)
(1.3086e-05 -5.57961e-05 0)
(1.30835e-05 -5.66707e-05 0)
(1.30819e-05 -5.73328e-05 0)
(1.3079e-05 -5.77216e-05 0)
(1.30646e-05 -5.77842e-05 0)
(1.39073e-05 -5.02267e-05 0)
(1.38262e-05 -5.12602e-05 0)
(1.37634e-05 -5.24181e-05 0)
(1.37056e-05 -5.36114e-05 0)
(1.36397e-05 -5.47706e-05 0)
(1.35567e-05 -5.58362e-05 0)
(1.34539e-05 -5.6751e-05 0)
(1.33341e-05 -5.74524e-05 0)
(1.3201e-05 -5.78709e-05 0)
(1.30484e-05 -5.79384e-05 0)
(1.46938e-05 -4.99142e-05 0)
(1.45916e-05 -5.10514e-05 0)
(1.45069e-05 -5.22927e-05 0)
(1.44154e-05 -5.35501e-05 0)
(1.42967e-05 -5.47587e-05 0)
(1.41375e-05 -5.58671e-05 0)
(1.39328e-05 -5.6826e-05 0)
(1.36864e-05 -5.75764e-05 0)
(1.34085e-05 -5.80389e-05 0)
(1.31025e-05 -5.81172e-05 0)
(1.56073e-05 -4.95339e-05 0)
(1.54904e-05 -5.08086e-05 0)
(1.53926e-05 -5.21531e-05 0)
(1.52754e-05 -5.3482e-05 0)
(1.51111e-05 -5.47406e-05 0)
(1.48826e-05 -5.58894e-05 0)
(1.45799e-05 -5.68911e-05 0)
(1.42008e-05 -5.76963e-05 0)
(1.37544e-05 -5.82215e-05 0)
(1.3256e-05 -5.83266e-05 0)
(1.6684e-05 -4.90946e-05 0)
(1.65667e-05 -5.05467e-05 0)
(1.64661e-05 -5.2013e-05 0)
(1.63292e-05 -5.34174e-05 0)
(1.61273e-05 -5.47238e-05 0)
(1.58428e-05 -5.59082e-05 0)
(1.546e-05 -5.69455e-05 0)
(1.49623e-05 -5.78012e-05 0)
(1.43355e-05 -5.84038e-05 0)
(1.35716e-05 -5.85691e-05 0)
(1.79606e-05 -4.86024e-05 0)
(1.78718e-05 -5.02855e-05 0)
(1.77691e-05 -5.18839e-05 0)
(1.76087e-05 -5.33613e-05 0)
(1.73744e-05 -5.47139e-05 0)
(1.7052e-05 -5.59316e-05 0)
(1.66235e-05 -5.69972e-05 0)
(1.60612e-05 -5.78877e-05 0)
(1.53152e-05 -5.85554e-05 0)
(1.42663e-05 -5.88075e-05 0)
(-3.14444e-07 -6.60551e-06 0)
(1.00091e-06 -6.71949e-06 0)
(2.15653e-06 -6.91161e-06 0)
(3.28615e-06 -7.11806e-06 0)
(4.42178e-06 -7.32281e-06 0)
(5.57238e-06 -7.52329e-06 0)
(6.74458e-06 -7.72153e-06 0)
(7.94488e-06 -7.92168e-06 0)
(9.18329e-06 -8.13007e-06 0)
(1.04749e-05 -8.35603e-06 0)
(-6.15639e-07 -8.42119e-06 0)
(9.03492e-07 -8.42357e-06 0)
(2.23186e-06 -8.51391e-06 0)
(3.48564e-06 -8.65402e-06 0)
(4.71972e-06 -8.81718e-06 0)
(5.95863e-06 -8.991e-06 0)
(7.21675e-06 -9.17146e-06 0)
(8.50622e-06 -9.35914e-06 0)
(9.84159e-06 -9.55814e-06 0)
(1.12425e-05 -9.77565e-06 0)
(-8.06088e-07 -1.0224e-05 0)
(8.15411e-07 -1.02012e-05 0)
(2.2799e-06 -1.0237e-05 0)
(3.65556e-06 -1.03249e-05 0)
(4.99253e-06 -1.04479e-05 0)
(6.32265e-06 -1.05926e-05 0)
(7.66737e-06 -1.07523e-05 0)
(9.04443e-06 -1.09247e-05 0)
(1.04729e-05 -1.11116e-05 0)
(1.19773e-05 -1.13179e-05 0)
(-9.24702e-07 -1.20356e-05 0)
(7.66157e-07 -1.20184e-05 0)
(2.33181e-06 -1.20368e-05 0)
(3.81243e-06 -1.20961e-05 0)
(5.24658e-06 -1.219e-05 0)
(6.6658e-06 -1.23101e-05 0)
(8.09513e-06 -1.245e-05 0)
(9.55646e-06 -1.26067e-05 0)
(1.10729e-05 -1.27805e-05 0)
(1.2673e-05 -1.29742e-05 0)
(-9.89672e-07 -1.38821e-05 0)
(7.60179e-07 -1.38771e-05 0)
(2.40413e-06 -1.38958e-05 0)
(3.97101e-06 -1.3944e-05 0)
(5.49089e-06 -1.40214e-05 0)
(6.99229e-06 -1.41239e-05 0)
(8.50096e-06 -1.42478e-05 0)
(1.00411e-05 -1.43903e-05 0)
(1.16384e-05 -1.4551e-05 0)
(1.33245e-05 -1.47315e-05 0)
(-1.00832e-06 -1.57751e-05 0)
(7.95064e-07 -1.5783e-05 0)
(2.50275e-06 -1.58085e-05 0)
(4.14018e-06 -1.58554e-05 0)
(5.73295e-06 -1.59254e-05 0)
(7.30682e-06 -1.60173e-05 0)
(8.88692e-06 -1.61293e-05 0)
(1.04982e-05 -1.62598e-05 0)
(1.2168e-05 -1.64082e-05 0)
(1.39291e-05 -1.65753e-05 0)
(-9.83294e-07 -1.77164e-05 0)
(8.68072e-07 -1.77369e-05 0)
(2.62884e-06 -1.77711e-05 0)
(4.32407e-06 -1.78215e-05 0)
(5.97748e-06 -1.78897e-05 0)
(7.61305e-06 -1.79759e-05 0)
(9.25505e-06 -1.80797e-05 0)
(1.09284e-05 -1.82004e-05 0)
(1.26609e-05 -1.83375e-05 0)
(1.44856e-05 -1.84912e-05 0)
(-9.15342e-07 -1.97026e-05 0)
(9.77409e-07 -1.97353e-05 0)
(2.78207e-06 -1.97789e-05 0)
(4.52419e-06 -1.98348e-05 0)
(6.22692e-06 -1.99042e-05 0)
(7.91332e-06 -1.99879e-05 0)
(9.60692e-06 -2.00861e-05 0)
(1.13323e-05 -2.01986e-05 0)
(1.3117e-05 -2.03252e-05 0)
(1.49938e-05 -2.04658e-05 0)
(-8.0454e-07 -2.17275e-05 0)
(1.1221e-06 -2.17722e-05 0)
(2.96182e-06 -2.18253e-05 0)
(4.74084e-06 -2.18875e-05 0)
(6.4823e-06 -2.19597e-05 0)
(8.20884e-06 -2.20426e-05 0)
(9.94348e-06 -2.21367e-05 0)
(1.17104e-05 -2.22422e-05 0)
(1.35366e-05 -2.23589e-05 0)
(1.54544e-05 -2.24866e-05 0)
(-6.50711e-07 -2.37833e-05 0)
(1.30167e-06 -2.384e-05 0)
(3.16758e-06 -2.39026e-05 0)
(4.97387e-06 -2.39715e-05 0)
(6.74387e-06 -2.40471e-05 0)
(8.50007e-06 -2.41301e-05 0)
(1.02652e-05 -2.4221e-05 0)
(1.2063e-05 -2.432e-05 0)
(1.39202e-05 -2.44272e-05 0)
(1.58681e-05 -2.45423e-05 0)
(-4.53605e-07 -2.58617e-05 0)
(1.51591e-06 -2.59304e-05 0)
(3.399e-06 -2.60025e-05 0)
(5.22302e-06 -2.60781e-05 0)
(7.01154e-06 -2.61574e-05 0)
(8.7871e-06 -2.62409e-05 0)
(1.05722e-05 -2.63289e-05 0)
(1.23904e-05 -2.64218e-05 0)
(1.42679e-05 -2.65196e-05 0)
(1.62357e-05 -2.66223e-05 0)
(-2.12938e-07 -2.79538e-05 0)
(1.76479e-06 -2.80346e-05 0)
(3.65586e-06 -2.81162e-05 0)
(5.48803e-06 -2.81985e-05 0)
(7.28514e-06 -2.82815e-05 0)
(9.06981e-06 -2.83655e-05 0)