/*--------------------------------*- C++ -*----------------------------------*\
| =========                 |                                                 |
| \\      /  F ield         | OpenFOAM: The Open Source CFD Toolbox           |
|  \\    /   O peration     | Version:  2106                                  |
|   \\  /    A nd           | Website:  www.openfoam.com                      |
|    \\/     M anipulation  |                                                 |
\*---------------------------------------------------------------------------*/
FoamFile
{
    version     2.0;
    format      ascii;
    arch        "LSB;label=32;scalar=64";
    class       volSymmTensorField;
    location    "80";
    object      sigma;
}
// * * * * * * * * * * * * * * * * * * * * * * * * * * * * * * * * * * * * * //

dimensions      [1 -1 -2 0 0 0 0];

internalField   nonuniform List<symmTensor> 
3500
(
(-891538 211990 4.02372e-11 -1.95641e+06 2.90049e-11 -657219)
(-958858 182759 1.18184e-12 -2.47537e+06 1.34124e-10 -792514)
(-1.00897e+06 137119 -4.95309e-11 -3.05012e+06 1.00208e-10 -936713)
(-1.02985e+06 101920 1.01804e-13 -3.4934e+06 -3.5851e-11 -1.04383e+06)
(-1.03921e+06 74545 2.42044e-11 -3.84388e+06 -5.10006e-11 -1.12687e+06)
(-1.04419e+06 51750.9 -1.01852e-11 -4.12492e+06 5.24696e-11 -1.19287e+06)
(-1.0477e+06 31329.1 5.97916e-13 -4.34872e+06 -1.90731e-11 -1.24533e+06)
(-1.04997e+06 12433.2 4.70668e-12 -4.52147e+06 -3.03689e-11 -1.28572e+06)
(-1.0518e+06 -5615.56 -2.10815e-12 -4.64657e+06 3.12682e-11 -1.31501e+06)
(-1.05263e+06 -22952.3 -5.28452e-13 -4.72578e+06 -3.18382e-11 -1.33348e+06)
(-1.05319e+06 -39893.4 -5.68019e-12 -4.76013e+06 -5.04732e-11 -1.34154e+06)
(-1.05278e+06 -56423.3 5.01774e-12 -4.74996e+06 1.94158e-11 -1.33909e+06)
(-1.05217e+06 -72735 8.47578e-12 -4.6954e+06 3.16199e-11 -1.32636e+06)
(-1.05058e+06 -88775.6 1.17928e-11 -4.59614e+06 5.6268e-11 -1.30309e+06)
(-1.04883e+06 -104670 0 -4.45186e+06 0 -1.26939e+06)
(-1.04603e+06 -120369 -3.20982e-11 -4.26186e+06 -5.70063e-11 -1.2249e+06)
(-1.04307e+06 -135950 -7.36515e-13 -4.02548e+06 -8.65104e-11 -1.16967e+06)
(-1.03901e+06 -151376 2.07927e-11 -3.74175e+06 7.34158e-11 -1.10325e+06)
(-1.03476e+06 -166654 2.46295e-19 -3.40981e+06 2.43313e-19 -1.02567e+06)
(-1.02938e+06 -181708 -2.41047e-13 -3.02863e+06 5.82103e-11 -936464)
(-1.02386e+06 -196368 -5.18398e-11 -2.59771e+06 -9.53002e-11 -835747)
(-1.01737e+06 -210349 7.95822e-13 -2.11708e+06 -6.56277e-11 -723334)
(-1.01105e+06 -223084 -3.71717e-19 -1.58841e+06 2.08953e-19 -599875)
(-1.00436e+06 -233856 4.40107e-12 -1.01562e+06 -2.10718e-10 -466150)
(-998713 -241629 2.9929e-11 -406146 7.69114e-13 -324198)
(-993744 -245733 6.22081e-11 229018 -7.90535e-11 -176475)
(-989893 -246258 5.93653e-11 877066 -1.6952e-11 -26036.9)
(-982627 -246332 -6.11957e-11 1.52722e+06 9.55878e-11 125675)
(-957349 -251910 -2.83023e-11 2.18502e+06 1.78484e-11 283310)
(-882889 -267864 1.28116e-11 2.8132e+06 -1.33559e-10 445456)
(-652392 847970 -5.83743e-11 -1.9514e+06 1.26752e-11 -600874)
(-736992 735781 1.78902e-12 -2.13696e+06 1.07157e-10 -663219)
(-830682 615373 5.15187e-11 -2.42879e+06 5.09251e-11 -752187)
(-878159 504274 4.33422e-11 -2.71397e+06 -7.74165e-11 -828953)
(-900905 407693 -6.68045e-14 -2.96721e+06 -2.56772e-11 -892641)
(-911931 323560 -2.62055e-13 -3.18025e+06 2.09838e-11 -944349)
(-918522 247495 2.31308e-11 -3.35321e+06 -2.22193e-11 -985785)
(-922202 176718 0 -3.48756e+06 0 -1.01764e+06)
(-925171 108927 -8.82487e-12 -3.58527e+06 2.89144e-11 -1.04087e+06)
(-926614 43161.9 9.27342e-13 -3.6471e+06 4.92957e-11 -1.05547e+06)
(-928194 -21647.6 -2.1643e-12 -3.67409e+06 -1.28111e-11 -1.06207e+06)
(-928588 -85792.3 -3.15085e-11 -3.66615e+06 -4.89135e-11 -1.06032e+06)
(-929503 -149868 -2.55759e-11 -3.62376e+06 -5.99824e-11 -1.05075e+06)
(-929338 -213950 3.22028e-11 -3.54637e+06 4.71465e-11 -1.03286e+06)
(-929879 -278415 3.95668e-11 -3.43423e+06 5.1819e-11 -1.0071e+06)
(-929341 -343290 0 -3.28651e+06 0 -972888)
(-929604 -408821 -5.33283e-11 -3.10333e+06 -9.9004e-11 -930677)
(-928823 -475005 -6.03607e-11 -2.88376e+06 2.51593e-11 -879826)
(-929056 -541864 -8.74803e-13 -2.6279e+06 4.82271e-11 -820835)
(-928641 -609140 7.32515e-11 -2.33491e+06 -3.71745e-11 -753128)
(-930033 -676199 -7.15472e-19 -2.00522e+06 -2.22938e-19 -677366)
(-932142 -741854 -8.11919e-11 -1.6386e+06 -9.8111e-12 -593249)
(-938079 -803908 1.69342e-10 -1.23655e+06 1.37912e-11 -501837)
(-947412 -859350 1.31933e-11 -800515 -1.83618e-10 -403368)
(-963151 -904114 -7.79216e-11 -334327 -1.23803e-10 -299418)
(-983128 -934778 1.71532e-10 157600 5.49811e-11 -190507)
(-1.00402e+06 -949651 -1.4978e-11 667931 1.21123e-10 -77558.1)
(-1.00837e+06 -951584 -1.89442e-10 1.18672e+06 1.39284e-10 41159.8)
(-960642 -942662 1.66524e-10 1.69038e+06 -2.85688e-11 168401)
(-800689 -915494 5.71105e-11 2.12715e+06 -6.35552e-11 306106)
(-561934 1.0724e+06 -1.16866e-10 -1.72622e+06 -1.03807e-11 -528036)
(-597062 987548 -1.10358e-10 -1.81409e+06 -3.89449e-11 -556420)
(-681712 871533 9.8909e-11 -1.93705e+06 -8.31022e-11 -604331)
(-740911 745096 1.3202e-10 -2.08051e+06 -6.63114e-11 -651096)
(-777159 620857 -3.70307e-11 -2.22669e+06 3.68335e-11 -693195)
(-798654 503704 -6.19722e-11 -2.3606e+06 1.23232e-11 -729058)
(-812062 393443 2.38034e-11 -2.4748e+06 -2.34037e-12 -758506)
(-820543 288533 -4.83769e-19 -2.56609e+06 5.13191e-19 -781532)
(-826327 187156 2.25539e-13 -2.63352e+06 3.8834e-12 -798426)
(-829964 88058.9 -3.39724e-21 -2.6766e+06 4.65471e-19 -809207)
(-832539 -9826.44 8.82433e-20 -2.69535e+06 2.32007e-19 -814128)
(-833932 -107109 1.56439e-11 -2.68953e+06 2.94982e-11 -813108)
(-834951 -204356 2.31238e-13 -2.65921e+06 -1.71429e-11 -806345)
(-835190 -301860 -6.31153e-11 -2.6041e+06 -3.39831e-11 -793683)
(-835339 -399953 3.92023e-11 -2.52425e+06 1.64147e-11 -775289)
(-834839 -498805 4.66087e-11 -2.41934e+06 1.56585e-11 -750965)
(-834386 -598620 -5.37097e-11 -2.28944e+06 -1.47216e-11 -720882)
(-833464 -699468 -1.19669e-10 -2.13422e+06 -6.79492e-11 -684850)
(-833020 -801331 1.33422e-10 -1.95375e+06 2.4602e-11 -643100)
(-832989 -903919 7.43767e-11 -1.74769e+06 -3.6979e-11 -595542)
(-835100 -1.0065e+06 -2.32761e-10 -1.51603e+06 -2.74091e-11 -542569)
(-840435 -1.10762e+06 2.87876e-12 -1.25823e+06 -5.27205e-11 -484308)
(-852120 -1.20471e+06 2.60265e-10 -973986 -3.8686e-11 -421409)
(-872483 -1.29383e+06 1.68107e-10 -662609 1.15957e-10 -354252)
(-904534 -1.36949e+06 -2.69465e-10 -324296 -1.14653e-12 -283576)
(-947118 -1.42539e+06 -1.86398e-10 39148.8 5.93267e-11 -209531)
(-993010 -1.45514e+06 8.23785e-11 421252 4.82288e-11 -131944)
(-1.02182e+06 -1.45346e+06 -7.87847e-26 806800 1.04103e-25 -49620.6)
(-999289 -1.41401e+06 1.66859e-10 1.17182e+06 -2.12487e-11 39814.6)
(-894561 -1.32768e+06 1.51838e-11 1.4799e+06 8.6584e-11 135079)
(-509331 1.14278e+06 5.52473e-11 -1.36751e+06 3.72572e-11 -433116)
(-488874 1.07951e+06 5.36987e-11 -1.40768e+06 -6.81248e-11 -437666)
(-540729 981851 3.23006e-19 -1.43868e+06 -5.45276e-20 -456786)
(-591083 863321 -8.81423e-11 -1.48381e+06 1.88645e-11 -478821)
(-630356 735703 2.09032e-12 -1.54091e+06 4.11007e-11 -501061)
(-658121 606936 -3.6135e-19 -1.60112e+06 1.15777e-19 -521364)
(-677156 480385 -1.11892e-12 -1.65736e+06 -1.24221e-11 -538736)
(-689975 356719 1.10968e-12 -1.70505e+06 7.89122e-12 -552697)
(-698592 235417 -9.16938e-12 -1.74156e+06 7.91204e-12 -563112)
(-704181 115715 -1.23861e-12 -1.76537e+06 1.29589e-11 -569897)
(-707768 -3121.45 -8.93287e-12 -1.77566e+06 -4.58091e-12 -573100)
(-709827 -121645 -1.47489e-11 -1.77189e+06 -2.29459e-11 -572703)
(-710924 -240292 -3.27428e-19 -1.75378e+06 -3.92969e-19 -568777)
(-711169 -359364 1.21148e-12 -1.72112e+06 -2.1479e-11 -561298)
(-710880 -479111 4.06688e-11 -1.6739e+06 -1.56186e-11 -550333)
(-709989 -599715 0 -1.61204e+06 0 -535853)
(-708774 -721329 0 -1.53566e+06 0 -517946)
(-707266 -844049 -6.07374e-11 -1.44477e+06 -8.89874e-12 -496623)
(-706078 -967885 5.67535e-12 -1.33946e+06 -1.2634e-10 -472048)
(-705908 -1.09268e+06 6.86418e-11 -1.21959e+06 9.74693e-11 -444347)
(-708510 -1.21796e+06 2.38196e-12 -1.0848e+06 -4.75541e-11 -413840)
(-716289 -1.34269e+06 5.42318e-12 -934024 -9.8851e-11 -380841)
(-733236 -1.46481e+06 -8.3179e-11 -765466 -5.45943e-11 -345854)
(-764042 -1.58068e+06 -9.27946e-11 -576242 4.8696e-11 -309296)
(-813640 -1.68422e+06 -4.38173e-12 -363213 5.10364e-11 -271582)
(-883616 -1.76617e+06 9.66599e-11 -124562 -5.11802e-11 -232656)
(-968116 -1.81378e+06 9.05138e-11 136277 -3.08067e-12 -191963)
(-1.04829e+06 -1.81195e+06 -7.34792e-11 407963 -8.78475e-11 -147767)
(-1.09449e+06 -1.74602e+06 8.56322e-19 668213 -7.34829e-20 -98372.5)
(-1.0804e+06 -1.60995e+06 7.49875e-12 890246 3.93546e-11 -43881)
(-464063 1.13979e+06 5.97293e-11 -928133 2.63271e-11 -321276)
(-399206 1.08202e+06 -5.364e-11 -931634 3.52087e-11 -307117)
(-416976 996290 1.81736e-12 -902802 5.29884e-11 -304564)
(-448642 889525 4.49397e-11 -879115 1.79594e-11 -306405)
(-481492 769398 -3.74617e-11 -867242 5.21826e-12 -311246)
(-509152 642816 3.21645e-11 -865211 1.08299e-11 -317161)
(-530199 514027 -3.17306e-19 -869442 1.33854e-19 -322994)
(-545225 384965 -1.75534e-12 -876427 -7.40036e-12 -328074)
(-555521 256227 1.42982e-11 -883483 -1.31431e-11 -332078)
(-562233 127776 1.83818e-12 -888714 -1.94851e-12 -334834)
(-566416 -605.067 1.387e-11 -890918 1.71747e-11 -336308)
(-568741 -129175 3.74082e-11 -889322 -2.44092e-11 -336476)
(-569800 -258129 -1.89493e-12 -883518 1.63846e-11 -335381)
(-569850 -387642 -2.79151e-11 -873286 -4.72171e-11 -333031)
(-569174 -517831 0 -858610 0 -329489)
(-567816 -648810 1.96459e-12 -839558 -2.99177e-11 -324779)
(-565989 -780665 -5.60755e-11 -816327 2.92885e-11 -318996)
(-563842 -913493 6.0872e-11 -789113 4.47584e-12 -312220)
(-561963 -1.04737e+06 2.08011e-12 -758125 -4.09675e-11 -304636)
(-561251 -1.18239e+06 -7.30706e-11 -723358 -4.00673e-12 -296448)
(-563599 -1.31856e+06 7.83343e-11 -684441 3.72068e-12 -288009)
(-571965 -1.4557e+06 0 -640152 0 -279719)
(-591225 -1.59309e+06 2.57947e-12 -587972 -4.90046e-11 -272123)
(-628116 -1.72858e+06 2.92934e-12 -523387 -4.94029e-11 -265732)
(-691178 -1.85706e+06 -9.18061e-11 -439772 -1.67796e-12 -260988)
(-788128 -1.96805e+06 -7.97269e-11 -329387 -1.44445e-10 -257888)
(-920948 -2.0434e+06 1.83726e-10 -186867 -1.29111e-12 -255650)
(-1.07794e+06 -2.05752e+06 -1.64298e-18 -15855.1 -1.34192e-19 -252415)
(-1.22779e+06 -1.98448e+06 -9.27541e-11 168874 4.4836e-11 -244365)
(-1.32862e+06 -1.81515e+06 6.95083e-11 334876 3.28788e-11 -229325)
(-413207 1.0836e+06 5.56625e-11 -439727 1.21494e-11 -196831)
(-314092 1.02166e+06 1.19577e-12 -405953 3.03282e-11 -166164)
(-305515 940710 -2.5826e-12 -326155 -5.44112e-11 -145770)
(-319287 844482 -3.55014e-20 -246782 8.89981e-22 -130631)
(-342249 736464 -3.58874e-12 -178919 -4.02094e-11 -120269)
(-365477 620670 0 -124852 0 -113153)
(-384864 500120 4.63712e-11 -84023.4 4.53907e-13 -108205)
(-399479 376802 1.80759e-11 -54667.8 7.89564e-12 -104803)
(-409648 251771 -2.39118e-11 -34817.4 -1.90763e-12 -102569)
(-416353 125611 5.0067e-12 -22895.4 -4.65033e-12 -101365)
(-420385 -1438.33 1.04744e-11 -17723.7 -7.5578e-12 -101102)
(-422590 -129217 -1.3308e-11 -18614.2 -1.08253e-11 -101816)
(-423379 -257684 -2.64566e-11 -25125 1.71291e-11 -103501)
(-423230 -386777 3.17372e-11 -37145.9 -6.48482e-13 -106241)
(-422217 -516494 3.33482e-19 -54652.9 -1.6654e-20 -110047)
(-420607 -646811 -4.68944e-11 -77856.6 3.48888e-13 -115030)
(-418375 -777755 -5.16506e-11 -106967 -3.38466e-11 -121233)
(-415880 -909376 6.31624e-11 -142369 -3.75731e-11 -128827)
(-413415 -1.04182e+06 -2.22676e-12 -184350 4.10329e-11 -137946)
(-412024 -1.17537e+06 -2.46857e-20 -233213 2.01691e-19 -148901)
(-413210 -1.31056e+06 0 -288855 0 -162015)
(-420056 -1.4482e+06 8.30294e-11 -350616 1.62151e-12 -177847)
(-437334 -1.58926e+06 1.94271e-12 -416351 -4.92549e-11 -197004)
(-473189 -1.73431e+06 -1.80484e-10 -481486 -4.90251e-12 -220310)
(-539674 -1.88167e+06 1.85136e-10 -537193 5.41889e-12 -248508)
(-653414 -2.02379e+06 9.67769e-11 -569092 -4.53552e-11 -282117)
(-831322 -2.14161e+06 -1.91128e-10 -558461 4.14439e-11 -320719)
(-1.0786e+06 -2.20049e+06 -1.88304e-10 -489510 4.06252e-11 -361872)
(-1.3677e+06 -2.15505e+06 -7.87926e-11 -367641 -3.94479e-11 -400462)
(-1.62602e+06 -1.97608e+06 1.33307e-10 -234099 3.3314e-11 -429259)
(-348488 974549 5.40219e-11 80120.7 -1.89606e-11 -61930.9)
(-225409 902741 5.44663e-11 159610 1.64052e-12 -15184.3)
(-202767 824089 4.72442e-11 292515 -2.63724e-11 20711.1)
(-205361 739059 4.10919e-11 424380 -2.17164e-11 50542.9)
(-219696 646892 -4.15713e-11 541790 -4.68917e-11 74329.5)
(-236932 548241 -3.00596e-11 641021 -5.14106e-12 93251.3)
(-252166 444024 -2.29369e-11 721275 -5.75345e-12 108256)
(-264206 335685 9.31026e-12 782967 2.37963e-11 119714)
(-272485 224150 1.10842e-11 827230 9.69686e-12 128018)
(-278126 110463 -1.27101e-14 854862 -6.77411e-12 133093)
(-281201 -4919.85 4.55816e-12 866751 -1.21737e-13 135127)
(-283016 -121389 -1.01098e-11 863139 3.51798e-11 133875)
(-283273 -238791 -2.38305e-11 844446 6.71006e-12 129501)
(-283086 -356762 -3.27211e-12 810466 2.15054e-11 121703)
(-281762 -475274 3.17224e-12 761338 -2.61924e-11 110671)
(-280321 -594095 4.37205e-11 696589 2.50352e-11 96061.8)
(-277885 -713258 -4.10992e-19 616187 5.51025e-20 78069.7)
(-275596 -832670 -6.33355e-11 519465 4.31246e-11 56277.4)
(-272727 -952534 -6.69838e-11 406261 3.52371e-12 30815.4)
(-270974 -1.07316e+06 -2.19937e-12 275772 4.53732e-11 1107.15)
(-270466 -1.19537e+06 7.81228e-11 127826 -1.50864e-12 -32916.9)
(-274512 -1.32061e+06 8.28304e-11 -38169.7 -3.18985e-13 -72157.3)
(-286009 -1.45136e+06 1.36528e-12 -221476 -5.13889e-11 -117112)
(-313387 -1.59118e+06 -8.91558e-11 -420081 -5.44212e-11 -169262)
(-368914 -1.7439e+06 -2.07154e-25 -626707 1.20436e-25 -229759)
(-477191 -1.9104e+06 -1.9532e-10 -825234 1.93224e-10 -300559)
(-673485 -2.08026e+06 2.35252e-12 -983833 -4.8497e-11 -382458)
(-999270 -2.21871e+06 1.83666e-10 -1.05808e+06 5.59992e-11 -474772)
(-1.45773e+06 -2.25746e+06 -6.81301e-11 -1.01205e+06 -1.26326e-10 -569949)
(-1.95314e+06 -2.11856e+06 -6.20443e-12 -886964 -3.68163e-11 -655408)
(-260618 799998 -6.26908e-11 629130 -4.37609e-11 85041.2)
(-132662 717927 -2.74372e-19 768019 -2.93673e-20 146621)
(-111866 645922 4.87833e-11 960768 7.17861e-12 195901)
(-110920 576742 3.99471e-11 1.14506e+06 -1.90082e-11 238649)
(-119848 505678 -3.32294e-11 1.30854e+06 1.34822e-11 274313)
(-130601 429704 -6.29134e-11 1.449e+06 -4.01204e-11 304246)
(-141158 348817 -1.8845e-11 1.56502e+06 2.25748e-12 328584)
(-148676 263164 -4.01509e-12 1.65679e+06 -8.91318e-12 348026)
(-154751 174120 4.17782e-12 1.72377e+06 3.81216e-12 362081)
(-157793 82233.6 -4.35104e-12 1.76665e+06 1.44897e-11 371275)
(-160394 -11332 -1.15749e-11 1.78479e+06 1.98009e-11 374861)
(-160685 -106327 -8.63504e-12 1.77888e+06 2.38905e-11 373429)
(-161441 -201996 1.94838e-11 1.74801e+06 4.21888e-12 366132)
(-160257 -298315 5.89086e-11 1.69288e+06 -2.80316e-12 353681)
(-160000 -394791 -4.00267e-12 1.61238e+06 2.73337e-11 335165)
(-157860 -491469 -8.92579e-11 1.50722e+06 -9.67922e-12 311392)
(-156853 -588026 -6.42298e-11 1.37617e+06 1.20255e-10 281381)
(-153980 -684540 6.03119e-11 1.21988e+06 -9.14047e-12 245976)
(-152530 -780945 -5.7654e-12 1.0369e+06 8.94593e-11 204085)
(-149658 -877584 7.02361e-19 827685 -6.11241e-20 156468)
(-149232 -975123 7.76477e-11 590365 -4.58539e-12 101800)
(-149247 -1.07502e+06 1.66204e-10 324777 -5.88698e-11 40507.1)
(-155251 -1.18017e+06 8.54129e-11 28229.4 5.48214e-11 -29312.7)
(-168683 -1.29565e+06 -2.69824e-10 -300037 -5.40238e-12 -108166)
(-202850 -1.43019e+06 -2.78718e-10 -661249 4.38846e-11 -199407)
(-277186 -1.59559e+06 1.90392e-10 -1.04746e+06 -4.23704e-11 -305686)
(-442614 -1.80154e+06 9.71772e-11 -1.43272e+06 -9.94837e-11 -432769)
(-780879 -2.03461e+06 1.27217e-18 -1.74691e+06 1.32976e-19 -583336)
(-1.39299e+06 -2.22484e+06 8.92739e-11 -1.87873e+06 5.59092e-11 -755014)
(-2.24445e+06 -2.23321e+06 -8.6446e-11 -1.77352e+06 -7.94282e-12 -927224)
(-135842 535411 -6.3365e-11 1.24285e+06 -5.24618e-11 255463)
(-48206.8 453800 -2.57864e-19 1.44209e+06 -3.13963e-20 321665)
(-42168 400188 9.66797e-11 1.69358e+06 2.46365e-11 381095)
(-42895.8 355571 7.71945e-12 1.9261e+06 6.13447e-11 434586)
(-47443.7 311213 -3.59554e-11 2.13278e+06 -1.55005e-11 481232)
(-53406 263702 -2.92952e-11 2.31232e+06 -1.68096e-11 521287)
(-58390.5 212243 -2.23113e-11 2.46363e+06 -1.79128e-11 555056)
(-62591.1 157113 -1.04225e-11 2.58498e+06 -2.08178e-11 582089)
(-65105.8 99100.3 2.12373e-12 2.67548e+06 1.45825e-11 602393)
(-67055.2 38943.2 -1.08594e-11 2.73371e+06 -1.83232e-11 615382)
(-67727.2 -22612.6 -1.02724e-19 2.7593e+06 2.65697e-19 621132)
(-68355.2 -85106.6 -3.16324e-11 2.75119e+06 4.00208e-11 619115)
(-68051.5 -148083 0 2.70938e+06 0 609538)
(-68001.4 -211337 -5.50744e-21 2.63305e+06 -1.21934e-20 591935)
(-67154.4 -274581 6.75147e-11 2.52245e+06 2.13827e-11 566608)
(-66657.7 -337722 -4.61873e-11 2.37686e+06 1.73042e-11 533123)
(-65385.6 -400542 -5.31908e-11 2.19666e+06 1.60006e-11 491833)
(-64489.8 -463012 4.09669e-12 1.98115e+06 -4.40427e-11 442307)
(-62885 -525016 -6.60349e-11 1.73072e+06 1.26312e-11 384885)
(-61808.6 -586723 1.43515e-10 1.44447e+06 -2.11246e-11 319075)
(-60372.9 -648409 1.53892e-10 1.12236e+06 -1.64674e-11 245074)
(-60091.6 -711014 -1.79621e-12 762593 5.87557e-11 162116)
(-60621.6 -776312 -8.66566e-11 363267 6.39307e-11 69841.2)
(-64661.5 -848353 -8.98357e-11 -80867 1.88584e-10 -33583.5)
(-75526.1 -935359 9.08881e-11 -577500 -1.24404e-10 -150698)
(-107083 -1.05392e+06 9.19499e-11 -1.13946e+06 -1.21347e-10 -287664)
(-195398 -1.23139e+06 -9.5546e-11 -1.77501e+06 5.17978e-11 -454710)
(-438053 -1.49636e+06 -1.04042e-10 -2.46174e+06 -1.41223e-10 -669183)
(-1.03724e+06 -1.82874e+06 -1.01723e-10 -3.06079e+06 3.75583e-11 -945698)
(-2.23125e+06 -2.09635e+06 -7.84551e-12 -3.23174e+06 4.7403e-11 -1.26069e+06)
(3720.68 105597 -3.02896e-12 2.01237e+06 -7.90509e-12 465252)
(47059.3 82659.9 -1.76819e-11 2.22386e+06 -1.59533e-11 524058)
(46751.7 70574.8 -1.57225e-11 2.51775e+06 -1.80758e-11 591809)
(47510.3 59679.5 1.88274e-11 2.79172e+06 1.24922e-10 655207)
(48815.1 47910 9.69033e-12 3.04077e+06 -7.89555e-12 712980)
(49415.3 35373.4 -1.66158e-11 3.26212e+06 -2.2619e-11 764200)
(50919.3 21493 6.95111e-12 3.45245e+06 2.48149e-11 808469)
(51476.1 6932.16 2.30098e-12 3.60756e+06 1.33486e-11 844392)
(52897.5 -8548.83 -2.2675e-12 3.72483e+06 -6.43649e-12 871783)
(52900.7 -24246.1 0 3.80137e+06 0 889447)
(53723.3 -40376.3 -4.65768e-12 3.83616e+06 1.2478e-11 897666)
(52785.2 -56374.1 0 3.82746e+06 0 895442)
(52724.9 -72476 8.48091e-12 3.77527e+06 -2.71416e-11 883384)
(50694.6 -88257.6 2.22496e-12 3.67843e+06 -2.53489e-11 860567)
(49651.9 -103930 1.13418e-19 3.53746e+06 -1.99187e-19 827795)
(46523.5 -119182 -2.02056e-12 3.35149e+06 3.74781e-11 784157)
(44502.2 -134158 1.87646e-12 3.12137e+06 -4.31879e-11 730586)
(40354.1 -148656 2.05555e-11 2.84644e+06 -2.04627e-11 666184)
(37424.7 -162749 -1.95907e-11 2.52785e+06 -8.90857e-11 591986)
(32395.2 -176366 2.00198e-19 2.16508e+06 -1.27143e-19 507111)
(28699.6 -189561 -2.18465e-19 1.75938e+06 1.05363e-19 412635)
(23022.2 -202494 2.61887e-11 1.31005e+06 1.22824e-10 307633)
(18926.3 -215398 -2.85661e-11 817596 -6.34325e-11 193044)
(13276.3 -229160 -2.62764e-13 279323 1.43938e-10 67522.9)
(9505.65 -245497 6.1726e-11 -309690 -1.43883e-10 -69273.3)
(2827.85 -269546 -3.13474e-11 -966158 6.9147e-11 -222307)
(-13154.6 -312971 3.29897e-11 -1.73207e+06 1.24763e-11 -402744)
(-80296.4 -402505 -1.56159e-12 -2.71166e+06 -8.03429e-11 -644298)
(-316969 -576182 -7.46218e-11 -4.12001e+06 -1.406e-10 -1.02392e+06)
(-938797 -816394 -7.43078e-12 -5.96748e+06 -8.35741e-12 -1.59376e+06)
(303285 -359419 2.72572e-11 873665 -4.53733e-11 271604)
(-100256 39239.1 9.37404e-11 811232 8.11905e-11 164072)
(-417972 239811 -3.54392e-11 376347 2.16235e-11 -9605.69)
(-686986 375218 2.50863e-11 27764.4 2.50202e-11 -152128)
(-972676 503833 5.17257e-11 -267671 1.03661e-12 -286234)
(-1.28737e+06 654690 4.03387e-11 -531792 -5.6867e-11 -419808)
(-1.63875e+06 846577 3.97169e-11 -788115 6.8763e-12 -560046)
(-2.01594e+06 1.10351e+06 3.01449e-11 -1.07237e+06 1.25125e-11 -712687)
(-2.30439e+06 1.47693e+06 6.32368e-11 -1.50749e+06 3.94448e-11 -879665)
(-2.07665e+06 2.19449e+06 0 -2.7409e+06 0 -1.11174e+06)
(124356 -166189 7.53159e-12 463250 -3.62629e-11 135601)
(-106806 79529.9 -6.64274e-11 716009 -5.81654e-11 140585)
(-372356 316597 4.05653e-11 434219 1.13056e-10 14276.1)
(-601493 505642 -7.06553e-11 114451 -8.23879e-11 -112394)
(-835748 666851 -5.77618e-12 -206794 -3.55084e-11 -240587)
(-1.08264e+06 834180 -6.69829e-11 -517383 -3.10475e-11 -369236)
(-1.33684e+06 1.03407e+06 -4.76962e-22 -831655 5.57054e-20 -500422)
(-1.57062e+06 1.28911e+06 -1.43382e-10 -1.18788e+06 -3.84083e-11 -636576)
(-1.71157e+06 1.61225e+06 -7.54722e-20 -1.66029e+06 -3.82792e-20 -778122)
(-1.70166e+06 1.95954e+06 2.089e-11 -2.38019e+06 -1.14173e-11 -941966)
(3008.87 -52526.3 2.54999e-11 264707 1.36703e-12 61780.5)
(-193718 110411 -2.60843e-12 518922 -5.42546e-11 75047.1)
(-412068 324302 4.02057e-11 372767 7.62939e-11 -9069.41)
(-603078 530617 4.58132e-11 131249 1.12152e-10 -108883)
(-789674 715803 -4.17713e-11 -161579 -6.06809e-11 -219520)
(-977078 894895 2.40071e-11 -477126 -5.46721e-11 -335586)
(-1.16e+06 1.08716e+06 1.36838e-11 -811780 6.55522e-11 -455026)
(-1.31935e+06 1.30562e+06 4.50325e-11 -1.18071e+06 4.11556e-11 -576938)
(-1.42607e+06 1.54237e+06 -2.11188e-11 -1.61045e+06 -8.0827e-11 -700736)
(-1.4878e+06 1.73784e+06 3.44365e-12 -2.11686e+06 -1.32342e-11 -831843)
(-83696.8 40027.2 -1.89128e-11 129434 3.6312e-11 10554.7)
(-258125 159799 4.16488e-11 341914 8.87715e-11 19336)
(-449406 336570 3.95498e-12 267856 5.29183e-11 -41896.2)
(-616379 530321 4.37737e-11 99848 7.45853e-11 -119200)
(-772560 718796 3.35106e-11 -143250 -2.11586e-11 -211341)
(-921782 900487 -5.90627e-12 -435488 -4.05113e-11 -313216)
(-1.06268e+06 1.08264e+06 3.92792e-11 -763041 1.69582e-11 -421321)
(-1.18714e+06 1.27113e+06 7.93372e-11 -1.12396e+06 2.77038e-11 -533331)
(-1.2857e+06 1.45868e+06 4.63294e-11 -1.52559e+06 4.19454e-11 -648758)
(-1.37513e+06 1.60541e+06 -2.81625e-11 -1.95951e+06 2.98814e-11 -769533)
(-154743 120791 3.97477e-12 23238.9 -3.63348e-11 -30347)
(-306413 216033 3.84466e-11 199104 -2.78088e-11 -24763.6)
(-478795 358758 3.92172e-12 155045 5.61335e-11 -74711.7)
(-630482 527793 4.60375e-11 37957 8.00289e-11 -136737)
(-769185 704221 0 -154401 0 -213135)
(-896661 879649 -1.15614e-11 -407825 -8.94079e-11 -301035)
(-1.01404e+06 1.05256e+06 4.14303e-11 -708966 1.93193e-11 -397617)
(-1.11907e+06 1.22401e+06 -7.71627e-11 -1.04959e+06 5.64072e-12 -500459)
(-1.20965e+06 1.38967e+06 -2.86607e-26 -1.4319e+06 -1.74586e-25 -609587)
(-1.30761e+06 1.51931e+06 -6.54588e-12 -1.85035e+06 1.82568e-11 -728760)
(-216772 192561 1.95294e-11 -66339.7 -3.79737e-11 -65333.5)
(-345944 273155 4.3146e-11 85795.4 3.2608e-11 -60034.3)
(-501523 388932 -3.92982e-11 53667.9 2.76768e-11 -103351)
(-640656 531815 4.79357e-11 -32430.6 8.45228e-11 -155328)
(-767991 688860 -3.27954e-19 -183780 -3.58434e-19 -219639)
(-883135 851375 3.1948e-11 -396527 -7.28444e-11 -295307)
(-986778 1.01414e+06 -3.16551e-11 -662799 6.91666e-11 -380672)
(-1.07887e+06 1.17493e+06 9.28534e-11 -975730 7.97808e-11 -474138)
(-1.1598e+06 1.32985e+06 3.79195e-11 -1.33832e+06 -2.39231e-11 -576489)
(-1.25646e+06 1.45087e+06 -8.02708e-12 -1.75667e+06 2.08611e-11 -695338)
(-272381 257044 3.94709e-11 -144974 -7.68483e-11 -96312.7)
(-380706 328147 -8.98009e-11 -6544.3 -6.62138e-11 -89365.6)
(-520369 423448 -4.10921e-11 -32583.5 2.91113e-11 -127604)
(-647185 543202 -4.49658e-11 -99776.2 -3.02048e-11 -172376)
(-764587 679343 -4.50525e-11 -220987 -2.82663e-11 -227440)
(-870661 825484 -5.07476e-11 -398051 -7.80632e-11 -292780)
(-965171 975866 -5.10131e-11 -628907 -7.26601e-11 -367864)
(-1.0476e+06 1.12671e+06 8.47911e-11 -910699 -4.34563e-12 -451916)
(-1.11813e+06 1.27344e+06 -3.42609e-11 -1.24931e+06 6.92717e-11 -546332)
(-1.20885e+06 1.38686e+06 2.61551e-11 -1.66488e+06 1.78576e-11 -663168)
(-322903 315497 -1.99998e-11 -215792 3.92654e-11 -124314)
(-412483 379734 -9.00427e-11 -84556.8 -2.0303e-12 -114702)
(-537146 459295 4.6458e-11 -105473 3.24457e-11 -148297)
(-651356 559870 -4.20053e-11 -159828 2.921e-11 -187196)
(-758488 676480 -4.65997e-11 -259153 -2.94422e-11 -234840)
(-856088 805209 -1.09576e-11 -407373 -1.1008e-10 -291568)
(-942490 941458 -5.24842e-11 -605978 -7.7763e-11 -357339)
(-1.01644e+06 1.08096e+06 -4.12291e-11 -856321 2.68407e-11 -432175)
(-1.07709e+06 1.21838e+06 -9.94102e-11 -1.16733e+06 -8.84434e-11 -517943)
(-1.16035e+06 1.32282e+06 4.66521e-11 -1.57155e+06 -6.08665e-11 -630439)
(-369145 368996 -3.78924e-11 -280727 6.21917e-12 -149971)
(-442040 427666 -5.08182e-11 -152536 -1.00223e-10 -137210)
(-552850 494568 9.56838e-11 -167848 6.59586e-11 -166315)
(-654628 579299 8.82439e-12 -212073 1.24404e-10 -200008)
(-750883 678675 4.30187e-11 -294742 -2.95371e-11 -241298)
(-839132 790676 -5.33976e-11 -419854 -8.64419e-11 -290535)
(-917407 911909 -4.81919e-11 -590827 -2.69086e-11 -348054)
(-983298 1.03848e+06 -4.83101e-11 -811640 -2.48152e-11 -414216)
(-1.03451e+06 1.16488e+06 -1.05776e-20 -1.09312e+06 5.51644e-20 -490991)
(-1.11051e+06 1.25855e+06 -5.81998e-11 -1.47779e+06 8.77817e-12 -597299)
(-411878 418477 1.55457e-19 -341306 1.38683e-19 -173812)
(-470014 472162 -9.09354e-12 -213307 -2.02127e-10 -157689)
(-568140 528337 4.53246e-11 -222083 -3.22256e-11 -182359)
(-657862 599692 5.77652e-11 -257143 1.60097e-10 -211155)
(-743021 684015 1.03146e-10 -326239 1.24433e-10 -246752)
(-821522 780455 1.00909e-18 -432699 1.09535e-18 -289436)
(-890878 886871 4.404e-11 -580151 -2.96531e-11 -339468)
(-948456 999761 6.54936e-19 -774212 5.78516e-19 -397539)
(-991137 1.11368e+06 5.47539e-11 -1.02649e+06 7.84839e-11 -465606)
(-1.06064e+06 1.1954e+06 -1.37547e-11 -1.38621e+06 2.91446e-11 -564658)
(-451791 464897 2.02688e-11 -398820 -3.99755e-12 -196295)
(-496930 513763 -6.21626e-12 -268669 -1.36521e-10 -176677)
(-583567 560328 -5.39028e-11 -269942 -1.00569e-10 -196964)
(-661994 619896 4.27906e-12 -296070 6.51953e-11 -221092)
(-736153 690908 1.32504e-20 -353249 6.42614e-21 -251400)
(-804343 773257 1.00613e-10 -443861 6.15535e-11 -288047)
(-864579 865432 -5.10654e-20 -571468 -1.80547e-20 -331395)
(-913857 964515 1.01107e-10 -741943 5.55675e-11 -382108)
(-948347 1.06553e+06 -2.02603e-20 -966473 -1.36464e-21 -441881)
(-1.0122e+06 1.13493e+06 2.38239e-11 -1.2991e+06 -1.06381e-11 -533377)
(-489708 509208 -2.0522e-11 -454600 4.00774e-11 -217917)
(-523497 553115 4.79528e-11 -320046 -3.43579e-11 -194664)
(-599714 590680 -1.05976e-10 -312664 -1.35877e-10 -210549)
(-667495 639489 -4.68493e-11 -329556 3.2922e-11 -230089)
(-731043 698408 -5.57459e-11 -375702 -9.75342e-11 -255403)
(-789194 767743 -5.12017e-11 -452592 -3.15654e-11 -286566)
(-839900 846664 4.62935e-11 -562916 -3.16613e-11 -323727)
(-880657 932494 -5.14244e-11 -712619 -2.89884e-11 -367679)
(-907637 1.02067e+06 -4.20872e-11 -912025 9.11308e-11 -419922)
(-966338 1.07816e+06 -2.41991e-11 -1.21799e+06 8.988e-12 -504076)
(-526428 552443 2.05375e-11 -509964 -4.09052e-11 -239167)
(-550363 591025 1.03965e-10 -368511 6.94042e-11 -212048)
(-617155 619788 -4.81051e-11 -351170 3.41015e-11 -223460)
(-675098 658313 0 -358340 0 -238486)
(-728440 705937 0 -393756 0 -258968)
(-776449 763298 -9.54167e-12 -458009 -1.29825e-10 -284875)
(-817866 829743 5.20487e-11 -553316 3.12253e-11 -316427)
(-850281 902988 -9.46798e-11 -684944 6.48519e-11 -354283)
(-869761 979076 5.22711e-11 -861831 2.86926e-11 -399598)
(-923497 1.02551e+06 4.77063e-11 -1.14334e+06 -1.8994e-11 -476962)
(-562907 595674 4.22925e-11 -566369 -4.69608e-11 -260602)
(-578367 628309 5.27096e-11 -415179 3.47095e-11 -229280)
(-636542 648163 5.65256e-11 -386232 1.03415e-10 -236025)
(-685133 676591 -5.25956e-11 -382775 -3.40653e-11 -246440)
(-728689 713325 -4.5275e-12 -407457 -6.70806e-11 -262188)
(-767033 759213 1.00529e-10 -460057 -4.3904e-13 -283175)
(-798978 814033 -4.79198e-11 -541736 3.31056e-11 -309396)
(-822882 875570 1.47727e-21 -657414 -1.15545e-20 -341607)
(-835180 940286 4.40378e-11 -814794 -9.66209e-11 -380763)
(-883713 976797 6.45306e-11 -1.07494e+06 -5.44042e-11 -451997)
(-600069 640053 2.05329e-11 -625300 -4.009e-11 -282778)
(-608263 665885 8.83472e-20 -461042 2.05413e-19 -246763)
(-658492 676404 1.1936e-11 -418525 2.07922e-10 -248542)
(-698265 694508 5.74874e-11 -403404 1.02847e-10 -254231)
(-732257 720460 -6.67426e-11 -416974 -2.37378e-10 -265207)
(-760770 755352 -5.77982e-11 -458139 -1.00383e-10 -281287)
(-783481 798983 9.33506e-12 -527576 1.32513e-10 -302552)
(-798953 849436 9.67087e-21 -629317 -6.04904e-20 -329601)
(-803670 903738 -6.18803e-11 -769629 -1.60344e-10 -363069)
(-846487 931476 -2.97392e-11 -1.01195e+06 -1.94622e-11 -428870)
(-638971 686759 2.0225e-11 -688376 -4.14856e-11 -306311)
(-640963 704639 -5.38492e-11 -507256 -3.44401e-11 -264974)
(-683688 705105 -5.88541e-19 -448759 -6.83171e-19 -261334)
(-714762 712452 1.11699e-10 -420456 1.37702e-10 -261973)
(-739297 727411 5.81657e-11 -422323 1.02529e-10 -268066)
(-758214 751251 -1.16428e-10 -452397 -2.03123e-10 -279372)
(-771306 784129 -5.35765e-11 -510239 -3.31821e-11 -295741)
(-777930 824130 4.46505e-12 -599482 6.66438e-11 -317864)
(-774952 868618 -5.36875e-11 -725311 -3.1633e-11 -346214)
(-811196 888684 -4.73465e-11 -953294 1.62074e-11 -407190)
(-680594 737000 2.30674e-11 -757206 -6.71574e-12 -331800)
(-677217 745525 0 -554885 0 -284331)
(-712695 734908 5.41316e-11 -477586 3.43545e-11 -274680)
(-735207 730660 -5.40169e-11 -434447 -3.44214e-11 -269920)
(-750128 734153 1.12511e-10 -423671 1.37393e-10 -270877)
(-758934 746890 4.6753e-12 -442284 6.83857e-11 -277204)
(-762307 768996 -5.3863e-11 -489313 -3.36623e-11 -288835)
(-759822 798795 0 -567456 0 -306295)
(-748326 834135 0 -680632 0 -329759)
(-776939 847461 0 -897627 0 -386438)
(-725951 791924 -4.68754e-11 -833416 1.4588e-11 -359854)
(-717801 789405 -1.09116e-10 -605163 -6.73686e-11 -305299)
(-746028 766404 4.43675e-12 -505776 6.90549e-11 -288878)