/*--------------------------------*- C++ -*----------------------------------*\
| =========                 |                                                 |
| \\      /  F ield         | OpenFOAM: The Open Source CFD Toolbox           |
|  \\    /   O peration     | Version:  2106                                  |
|   \\  /    A nd           | Website:  www.openfoam.com                      |
|    \\/     M anipulation  |                                                 |
\*---------------------------------------------------------------------------*/
FoamFile
{
    version     2.0;
    format      ascii;
    arch        "LSB;label=32;scalar=64";
    class       volVectorField;
    location    "60";
    object      D;
}
// * * * * * * * * * * * * * * * * * * * * * * * * * * * * * * * * * * * * * //

dimensions      [0 1 0 0 0 0 0];

internalField   nonuniform List<vector> 
3500
(
(9.51423e-05 6.26809e-06 0)
(9.75341e-05 5.79039e-06 0)
(9.97408e-05 5.14277e-06 0)
(0.000101724 4.36014e-06 0)
(0.00010347 3.46886e-06 0)
(0.000104965 2.48678e-06 0)
(0.000106199 1.43006e-06 0)
(0.000107158 3.11647e-07 0)
(0.000107833 -8.54627e-07 0)
(0.000108216 -2.0568e-06 0)
(0.000108302 -3.28162e-06 0)
(0.000108085 -4.51723e-06 0)
(0.000107567 -5.75051e-06 0)
(0.000106747 -6.9694e-06 0)
(0.000105632 -8.16068e-06 0)
(0.000104225 -9.31185e-06 0)
(0.000102538 -1.04094e-05 0)
(0.000100581 -1.14401e-05 0)
(9.83703e-05 -1.23901e-05 0)
(9.59226e-05 -1.32453e-05 0)
(9.32607e-05 -1.39913e-05 0)
(9.04081e-05 -1.46133e-05 0)
(8.73959e-05 -1.5097e-05 0)
(8.42565e-05 -1.5428e-05 0)
(8.10304e-05 -1.55942e-05 0)
(7.77584e-05 -1.5585e-05 0)
(7.44855e-05 -1.53945e-05 0)
(7.12497e-05 -1.50189e-05 0)
(6.80778e-05 -1.4459e-05 0)
(6.49813e-05 -1.37088e-05 0)
(9.50798e-05 4.19592e-06 0)
(9.74538e-05 3.74455e-06 0)
(9.96707e-05 3.22167e-06 0)
(0.000101678 2.61787e-06 0)
(0.000103449 1.93685e-06 0)
(0.000104967 1.18731e-06 0)
(0.00010622 3.79936e-07 0)
(0.000107195 -4.75152e-07 0)
(0.000107882 -1.36754e-06 0)
(0.000108274 -2.28754e-06 0)
(0.000108364 -3.22511e-06 0)
(0.000108148 -4.1707e-06 0)
(0.000107627 -5.11434e-06 0)
(0.000106802 -6.04635e-06 0)
(0.000105676 -6.95666e-06 0)
(0.000104256 -7.83535e-06 0)
(0.000102551 -8.67211e-06 0)
(0.000100573 -9.45667e-06 0)
(9.8337e-05 -1.01784e-05 0)
(9.58603e-05 -1.08267e-05 0)
(9.31646e-05 -1.13905e-05 0)
(9.02744e-05 -1.1859e-05 0)
(8.72198e-05 -1.22211e-05 0)
(8.40341e-05 -1.24659e-05 0)
(8.0757e-05 -1.25832e-05 0)
(7.74309e-05 -1.25636e-05 0)
(7.41015e-05 -1.23997e-05 0)
(7.08117e-05 -1.20864e-05 0)
(6.76012e-05 -1.16247e-05 0)
(6.45137e-05 -1.103e-05 0)
(9.50427e-05 2.39848e-06 0)
(9.73943e-05 2.00114e-06 0)
(9.95995e-05 1.57629e-06 0)
(0.00010161 1.11323e-06 0)
(0.000103393 6.06497e-07 0)
(0.000104925 5.68387e-08 0)
(0.00010619 -5.31258e-07 0)
(0.000107176 -1.15184e-06 0)
(0.000107871 -1.79828e-06 0)
(0.000108268 -2.46384e-06 0)
(0.000108361 -3.14164e-06 0)
(0.000108146 -3.82487e-06 0)
(0.000107623 -4.50656e-06 0)
(0.000106793 -5.17977e-06 0)
(0.000105659 -5.83745e-06 0)
(0.000104229 -6.47252e-06 0)
(0.000102511 -7.07778e-06 0)
(0.000100518 -7.64601e-06 0)
(9.82625e-05 -8.16985e-06 0)
(9.57639e-05 -8.64185e-06 0)
(9.30428e-05 -9.05441e-06 0)
(9.01237e-05 -9.39966e-06 0)
(8.70355e-05 -9.66942e-06 0)
(8.38117e-05 -9.855e-06 0)
(8.04909e-05 -9.94732e-06 0)
(7.71166e-05 -9.93715e-06 0)
(7.37369e-05 -9.81654e-06 0)
(7.04029e-05 -9.58111e-06 0)
(6.71688e-05 -9.23538e-06 0)
(6.40952e-05 -8.79477e-06 0)
(9.49967e-05 7.13703e-07 0)
(9.73375e-05 4.05166e-07 0)
(9.95301e-05 8.73005e-08 0)
(0.000101535 -2.43453e-07 0)
(0.000103318 -5.92033e-07 0)
(0.000104855 -9.60594e-07 0)
(0.000106126 -1.34862e-06 0)
(0.000107117 -1.75393e-06 0)
(0.000107817 -2.17342e-06 0)
(0.000108217 -2.60354e-06 0)
(0.000108312 -3.04051e-06 0)
(0.000108097 -3.48043e-06 0)
(0.000107572 -3.91929e-06 0)
(0.000106739 -4.35302e-06 0)
(0.0001056 -4.77753e-06 0)
(0.000104163 -5.18867e-06 0)
(0.000102437 -5.5823e-06 0)
(0.000100433 -5.95425e-06 0)
(9.81657e-05 -6.30034e-06 0)
(9.56527e-05 -6.61628e-06 0)
(9.29145e-05 -6.89765e-06 0)
(8.99749e-05 -7.13958e-06 0)
(8.68617e-05 -7.33658e-06 0)
(8.3607e-05 -7.48204e-06 0)
(8.02484e-05 -7.56797e-06 0)
(7.68295e-05 -7.58509e-06 0)
(7.34015e-05 -7.52408e-06 0)
(7.00236e-05 -7.37872e-06 0)
(6.67617e-05 -7.14935e-06 0)
(6.36861e-05 -6.84798e-06 0)
(9.49285e-05 -9.34952e-07 0)
(9.7269e-05 -1.13396e-06 0)
(9.94551e-05 -1.3317e-06 0)
(0.000101453 -1.5265e-06 0)
(0.000103233 -1.72035e-06 0)
(0.000104768 -1.91531e-06 0)
(0.000106039 -2.11271e-06 0)
(0.000107031 -2.3131e-06 0)
(0.000107731 -2.51639e-06 0)
(0.000108132 -2.72207e-06 0)
(0.000108226 -2.92934e-06 0)
(0.000108011 -3.13722e-06 0)
(0.000107486 -3.34458e-06 0)
(0.00010665 -3.55026e-06 0)
(0.00010551 -3.75306e-06 0)
(0.00010407 -3.95178e-06 0)
(0.00010234 -4.14524e-06 0)
(0.000100331 -4.33232e-06 0)
(9.80582e-05 -4.5119e-06 0)
(9.55385e-05 -4.68286e-06 0)
(9.27917e-05 -4.8439e-06 0)
(8.98407e-05 -4.99333e-06 0)
(8.67116e-05 -5.12865e-06 0)
(8.34345e-05 -5.2459e-06 0)
(8.00443e-05 -5.33888e-06 0)
(7.65834e-05 -5.39845e-06 0)
(7.31042e-05 -5.41273e-06 0)
(6.96718e-05 -5.3692e-06 0)
(6.63632e-05 -5.26016e-06 0)
(6.32599e-05 -5.08642e-06 0)
(9.48333e-05 -2.59774e-06 0)
(9.71822e-05 -2.67723e-06 0)
(9.93685e-05 -2.74551e-06 0)
(0.000101362 -2.79775e-06 0)
(0.000103136 -2.83345e-06 0)
(0.000104665 -2.85403e-06 0)
(0.000105932 -2.86181e-06 0)
(0.00010692 -2.85943e-06 0)
(0.000107618 -2.84937e-06 0)
(0.000108017 -2.8339e-06 0)
(0.00010811 -2.81498e-06 0)
(0.000107895 -2.7945e-06 0)
(0.000107369 -2.77411e-06 0)
(0.000106533 -2.7555e-06 0)
(0.000105393 -2.74029e-06 0)
(0.000103954 -2.73019e-06 0)
(0.000102224 -2.7269e-06 0)
(0.000100217 -2.73228e-06 0)
(9.79455e-05 -2.7482e-06 0)
(9.54268e-05 -2.77662e-06 0)
(9.26801e-05 -2.81943e-06 0)
(8.97274e-05 -2.87827e-06 0)
(8.6593e-05 -2.95416e-06 0)
(8.33039e-05 -3.04676e-06 0)
(7.98915e-05 -3.15319e-06 0)
(7.63932e-05 -3.26611e-06 0)
(7.28582e-05 -3.3717e-06 0)
(6.93533e-05 -3.44915e-06 0)
(6.59663e-05 -3.47447e-06 0)
(6.2799e-05 -3.43445e-06 0)
(9.4712e-05 -4.32078e-06 0)
(9.70759e-05 -4.2765e-06 0)
(9.92669e-05 -4.2093e-06 0)
(0.000101258 -4.11141e-06 0)
(0.000103024 -3.98118e-06 0)
(0.000104544 -3.82014e-06 0)
(0.000105802 -3.6321e-06 0)
(0.000106784 -3.42159e-06 0)
(0.000107476 -3.19357e-06 0)
(0.000107872 -2.95271e-06 0)
(0.000107963 -2.70372e-06 0)
(0.000107747 -2.45103e-06 0)
(0.000107221 -2.19913e-06 0)
(0.000106388 -1.95236e-06 0)
(0.00010525 -1.71521e-06 0)
(0.000103815 -1.4921e-06 0)
(0.000102091 -1.28766e-06 0)
(0.00010009 -1.10652e-06 0)
(9.78264e-05 -9.53512e-07 0)
(9.53162e-05 -8.33526e-07 0)
(9.25785e-05 -7.51594e-07 0)
(8.96344e-05 -7.12741e-07 0)
(8.65067e-05 -7.21822e-07 0)
(8.32194e-05 -7.83037e-07 0)
(7.9799e-05 -8.98767e-07 0)
(7.62747e-05 -1.06713e-06 0)
(7.26852e-05 -1.27729e-06 0)
(6.90892e-05 -1.50331e-06 0)
(6.5581e-05 -1.7019e-06 0)
(6.22938e-05 -1.82535e-06 0)
(9.45691e-05 -6.15239e-06 0)
(9.69524e-05 -5.98497e-06 0)
(9.91491e-05 -5.77717e-06 0)
(0.000101135 -5.51906e-06 0)
(0.00010289 -5.21039e-06 0)
(0.000104398 -4.85457e-06 0)
(0.000105644 -4.458e-06 0)
(0.000106615 -4.02714e-06 0)
(0.0001073 -3.56952e-06 0)
(0.00010769 -3.09185e-06 0)
(0.000107779 -2.6016e-06 0)
(0.000107562 -2.10545e-06 0)
(0.000107038 -1.61082e-06 0)
(0.000106208 -1.12444e-06 0)
(0.000105076 -6.53815e-07 0)
(0.000103648 -2.0585e-07 0)
(0.000101933 2.11847e-07 0)
(9.99439e-05 5.92095e-07 0)
(9.76939e-05 9.2711e-07 0)
(9.51992e-05 1.20935e-06 0)
(9.24793e-05 1.43076e-06 0)
(8.95538e-05 1.58328e-06 0)
(8.64456e-05 1.65836e-06 0)
(8.31759e-05 1.64721e-06 0)
(7.97675e-05 1.54102e-06 0)
(7.62397e-05 1.33237e-06 0)
(7.26144e-05 1.02009e-06 0)
(6.89241e-05 6.19932e-07 0)
(6.52474e-05 1.84774e-07 0)
(6.17509e-05 -1.89003e-07 0)
(9.44149e-05 -8.15754e-06 0)
(9.68165e-05 -7.86913e-06 0)
(9.90121e-05 -7.50946e-06 0)
(0.000100985 -7.07433e-06 0)
(0.000102723 -6.56753e-06 0)
(0.000104214 -5.99815e-06 0)
(0.000105444 -5.37373e-06 0)
(0.000106403 -4.7045e-06 0)
(0.000107078 -3.99849e-06 0)
(0.000107462 -3.26613e-06 0)
(0.000107547 -2.51577e-06 0)
(0.000107329 -1.75798e-06 0)
(0.000106806 -1.00147e-06 0)
(0.000105981 -2.56875e-07 0)
(0.000104856 4.6676e-07 0)
(0.00010344 1.15878e-06 0)
(0.000101738 1.80977e-06 0)
(9.97659e-05 2.40911e-06 0)
(9.75346e-05 2.947e-06 0)
(9.5063e-05 3.41282e-06 0)
(9.23676e-05 3.79626e-06 0)
(8.94712e-05 4.08651e-06 0)
(8.6393e-05 4.27226e-06 0)
(8.31573e-05 4.34154e-06 0)
(7.97818e-05 4.28029e-06 0)
(7.62833e-05 4.07271e-06 0)
(7.26638e-05 3.69946e-06 0)
(6.89192e-05 3.14612e-06 0)
(6.50596e-05 2.42215e-06 0)
(6.12276e-05 1.62687e-06 0)
(9.42736e-05 -1.04428e-05 0)
(9.66694e-05 -1.00212e-05 0)
(9.88451e-05 -9.47984e-06 0)
(0.000100793 -8.83615e-06 0)
(0.000102507 -8.10453e-06 0)
(0.000103975 -7.2951e-06 0)
(0.000105188 -6.41877e-06 0)
(0.000106131 -5.4853e-06 0)
(0.000106795 -4.5063e-06 0)
(0.00010717 -3.49257e-06 0)
(0.00010725 -2.45652e-06 0)
(0.00010703 -1.40968e-06 0)
(0.000106511 -3.64874e-07 0)
(0.000105691 6.65914e-07 0)
(0.000104577 1.6697e-06 0)
(0.000103172 2.63416e-06 0)
(0.000101489 3.54629e-06 0)
(9.95367e-05 4.39354e-06 0)
(9.7331e-05 5.16299e-06 0)
(9.48869e-05 5.84195e-06 0)
(9.22247e-05 6.41766e-06 0)
(8.93634e-05 6.87729e-06 0)
(8.63265e-05 7.20815e-06 0)
(8.31344e-05 7.39683e-06 0)
(7.98097e-05 7.42957e-06 0)
(7.63654e-05 7.28944e-06 0)
(7.28031e-05 6.95412e-06 0)
(6.90908e-05 6.38381e-06 0)
(6.51565e-05 5.50384e-06 0)
(6.09556e-05 4.1718e-06 0)
(1.95577e-05 -3.78124e-05 0)
(1.94727e-05 -3.95761e-05 0)
(1.93217e-05 -4.11168e-05 0)
(1.91257e-05 -4.25132e-05 0)
(1.88779e-05 -4.37924e-05 0)
(1.85688e-05 -4.49585e-05 0)
(1.81883e-05 -4.60047e-05 0)
(1.77262e-05 -4.69197e-05 0)
(1.71853e-05 -4.76975e-05 0)
(1.66422e-05 -4.83748e-05 0)
(2.1329e-05 -3.62138e-05 0)
(2.12345e-05 -3.81632e-05 0)
(2.10758e-05 -3.98958e-05 0)
(2.08766e-05 -4.14528e-05 0)
(2.06396e-05 -4.28704e-05 0)
(2.03617e-05 -4.41661e-05 0)
(2.00397e-05 -4.53451e-05 0)
(1.9676e-05 -4.64082e-05 0)
(1.92902e-05 -4.73647e-05 0)
(1.89403e-05 -4.82556e-05 0)
(2.32555e-05 -3.46341e-05 0)
(2.31534e-05 -3.66871e-05 0)
(2.29919e-05 -3.85676e-05 0)
(2.27918e-05 -4.028e-05 0)
(2.25615e-05 -4.18452e-05 0)
(2.23044e-05 -4.32818e-05 0)
(2.2023e-05 -4.46021e-05 0)
(2.17238e-05 -4.58146e-05 0)
(2.14232e-05 -4.69322e-05 0)
(2.11498e-05 -4.79828e-05 0)
(2.53018e-05 -3.30561e-05 0)
(2.51957e-05 -3.5179e-05 0)
(2.50359e-05 -3.71677e-05 0)
(2.48385e-05 -3.90119e-05 0)
(2.46138e-05 -4.07172e-05 0)
(2.43692e-05 -4.22953e-05 0)
(2.41105e-05 -4.37584e-05 0)
(2.38452e-05 -4.51175e-05 0)
(2.35845e-05 -4.63852e-05 0)
(2.33432e-05 -4.75816e-05 0)
(2.74486e-05 -3.14732e-05 0)
(2.73394e-05 -3.36505e-05 0)
(2.71831e-05 -3.5721e-05 0)
(2.69912e-05 -3.76716e-05 0)
(2.67729e-05 -3.94996e-05 0)
(2.65368e-05 -4.12093e-05 0)
(2.62906e-05 -4.2809e-05 0)
(2.60419e-05 -4.43086e-05 0)
(2.57995e-05 -4.57194e-05 0)
(2.55737e-05 -4.70575e-05 0)
(2.96822e-05 -2.98824e-05 0)
(2.957e-05 -3.21054e-05 0)
(2.9417e-05 -3.42407e-05 0)
(2.92315e-05 -3.62769e-05 0)
(2.90208e-05 -3.82083e-05 0)
(2.87926e-05 -4.00344e-05 0)
(2.85548e-05 -4.17591e-05 0)
(2.83155e-05 -4.33896e-05 0)
(2.80827e-05 -4.49356e-05 0)
(2.78658e-05 -4.64113e-05 0)
(3.19912e-05 -2.82826e-05 0)
(3.18761e-05 -3.05452e-05 0)
(3.17258e-05 -3.27342e-05 0)
(3.15467e-05 -3.48404e-05 0)
(3.13438e-05 -3.68579e-05 0)
(3.11239e-05 -3.87838e-05 0)
(3.08942e-05 -4.06192e-05 0)
(3.06622e-05 -4.23685e-05 0)
(3.04364e-05 -4.40397e-05 0)
(3.02262e-05 -4.56458e-05 0)
(3.43664e-05 -2.66732e-05 0)
(3.42485e-05 -2.89709e-05 0)
(3.41003e-05 -3.12057e-05 0)
(3.39268e-05 -3.33704e-05 0)
(3.37318e-05 -3.54598e-05 0)
(3.35205e-05 -3.74705e-05 0)
(3.32991e-05 -3.94019e-05 0)
(3.30749e-05 -4.12565e-05 0)
(3.28559e-05 -4.30409e-05 0)
(3.2652e-05 -4.47669e-05 0)
(3.67997e-05 -2.50542e-05 0)
(3.66793e-05 -2.73834e-05 0)
(3.65326e-05 -2.96581e-05 0)
(3.6364e-05 -3.18725e-05 0)
(3.61763e-05 -3.40226e-05 0)
(3.59735e-05 -3.61053e-05 0)
(3.57608e-05 -3.81191e-05 0)
(3.55448e-05 -4.00655e-05 0)
(3.53332e-05 -4.19502e-05 0)
(3.51357e-05 -4.37838e-05 0)
(3.92844e-05 -2.34257e-05 0)
(3.91618e-05 -2.57834e-05 0)
(3.90162e-05 -2.80933e-05 0)
(3.88516e-05 -3.03507e-05 0)
(3.86703e-05 -3.25528e-05 0)
(3.84754e-05 -3.46968e-05 0)
(3.82713e-05 -3.67813e-05 0)
(3.80637e-05 -3.88071e-05 0)
(3.78598e-05 -4.07793e-05 0)
(3.76688e-05 -4.27075e-05 0)
(4.1815e-05 -2.1788e-05 0)
(4.16902e-05 -2.41717e-05 0)
(4.15453e-05 -2.65129e-05 0)
(4.13839e-05 -2.8808e-05 0)
(4.12079e-05 -3.1055e-05 0)
(4.102e-05 -3.32517e-05 0)
(4.08239e-05 -3.53969e-05 0)
(4.06244e-05 -3.74912e-05 0)
(4.04279e-05 -3.95392e-05 0)
(4.02432e-05 -4.15495e-05 0)
(4.4387e-05 -2.01414e-05 0)
(4.42601e-05 -2.25489e-05 0)
(4.41154e-05 -2.49182e-05 0)
(4.39562e-05 -2.72465e-05 0)
(4.37844e-05 -2.95327e-05 0)
(4.36023e-05 -3.17751e-05 0)
(4.34131e-05 -3.39728e-05 0)
(4.32209e-05 -3.61261e-05 0)
(4.30314e-05 -3.82396e-05 0)
(4.28523e-05 -4.03208e-05 0)
(4.69967e-05 -1.84868e-05 0)
(4.68677e-05 -2.09157e-05 0)
(4.67225e-05 -2.33101e-05 0)
(4.65645e-05 -2.56678e-05 0)
(4.63956e-05 -2.79884e-05 0)
(4.62181e-05 -3.02708e-05 0)
(4.60345e-05 -3.2514e-05 0)
(4.58484e-05 -3.47186e-05 0)
(4.56649e-05 -3.68888e-05 0)
(4.54909e-05 -3.90313e-05 0)
(4.96413e-05 -1.6825e-05 0)
(4.951e-05 -1.92732e-05 0)
(4.93635e-05 -2.16896e-05 0)
(4.92057e-05 -2.40732e-05 0)
(4.90385e-05 -2.6424e-05 0)
(4.88639e-05 -2.87414e-05 0)
(4.86844e-05 -3.10247e-05 0)
(4.85033e-05 -3.3274e-05 0)
(4.83248e-05 -3.54936e-05 0)
(4.81549e-05 -3.76894e-05 0)
(5.23186e-05 -1.51579e-05 0)
(5.21846e-05 -1.76224e-05 0)
(5.20361e-05 -2.00579e-05 0)
(5.18771e-05 -2.24639e-05 0)
(5.171e-05 -2.48412e-05 0)
(5.1537e-05 -2.71893e-05 0)
(5.13603e-05 -2.95076e-05 0)
(5.11826e-05 -3.17965e-05 0)
(5.10079e-05 -3.40595e-05 0)
(5.08415e-05 -3.6302e-05 0)
(5.50269e-05 -1.34879e-05 0)
(5.48895e-05 -1.59653e-05 0)
(5.47379e-05 -1.84163e-05 0)
(5.45765e-05 -2.08411e-05 0)
(5.44081e-05 -2.3241e-05 0)
(5.42349e-05 -2.5616e-05 0)
(5.40593e-05 -2.79653e-05 0)
(5.38839e-05 -3.02891e-05 0)
(5.3712e-05 -3.25906e-05 0)
(5.35483e-05 -3.48746e-05 0)
(5.77643e-05 -1.18187e-05 0)
(5.7623e-05 -1.43046e-05 0)
(5.7467e-05 -1.67666e-05 0)
(5.73017e-05 -1.92061e-05 0)
(5.71303e-05 -2.16248e-05 0)
(5.69555e-05 -2.40227e-05 0)
(5.67796e-05 -2.63991e-05 0)
(5.66049e-05 -2.8754e-05 0)
(5.64347e-05 -3.10901e-05 0)
(5.62733e-05 -3.34115e-05 0)
(6.05293e-05 -1.01554e-05 0)
(6.03831e-05 -1.26437e-05 0)
(6.02215e-05 -1.51114e-05 0)
(6.00506e-05 -1.75607e-05 0)
(5.98746e-05 -1.99938e-05 0)
(5.96964e-05 -2.24107e-05 0)
(5.95186e-05 -2.48106e-05 0)
(5.93436e-05 -2.71929e-05 0)
(5.91741e-05 -2.95602e-05 0)
(5.90144e-05 -3.19157e-05 0)
(6.33194e-05 -8.50457e-06 0)
(6.31674e-05 -1.09876e-05 0)
(6.29987e-05 -1.34541e-05 0)
(6.28207e-05 -1.59073e-05 0)
(6.26382e-05 -1.83497e-05 0)
(6.24551e-05 -2.07812e-05 0)
(6.2274e-05 -2.32007e-05 0)
(6.20973e-05 -2.56072e-05 0)
(6.19278e-05 -2.80026e-05 0)
(6.17695e-05 -3.03895e-05 0)
(6.61315e-05 -6.87507e-06 0)
(6.59727e-05 -9.34282e-06 0)
(6.57955e-05 -1.17994e-05 0)
(6.56087e-05 -1.42492e-05 0)
(6.54183e-05 -1.66946e-05 0)
(6.52285e-05 -1.91356e-05 0)
(6.50425e-05 -2.15705e-05 0)
(6.48631e-05 -2.39976e-05 0)
(6.46929e-05 -2.64183e-05 0)
(6.45359e-05 -2.88343e-05 0)
(6.89605e-05 -5.27803e-06 0)
(6.8794e-05 -7.71793e-06 0)
(6.86074e-05 -1.01537e-05 0)
(6.84107e-05 -1.25906e-05 0)
(6.82107e-05 -1.50315e-05 0)
(6.80127e-05 -1.74757e-05 0)
(6.78207e-05 -1.99212e-05 0)
(6.76375e-05 -2.23652e-05 0)
(6.7466e-05 -2.48082e-05 0)
(6.73102e-05 -2.72511e-05 0)
(7.17989e-05 -3.72699e-06 0)
(7.16244e-05 -6.12374e-06 0)
(7.14282e-05 -8.52522e-06 0)
(7.12209e-05 -1.09378e-05 0)
(7.10105e-05 -1.33643e-05 0)
(7.08032e-05 -1.58041e-05 0)
(7.06038e-05 -1.82542e-05 0)
(7.04159e-05 -2.07108e-05 0)
(7.02427e-05 -2.31729e-05 0)
(7.00884e-05 -2.56405e-05 0)
(7.46352e-05 -2.23766e-06 0)
(7.44536e-05 -4.57361e-06 0)
(7.4249e-05 -6.92501e-06 0)
(7.40322e-05 -9.29902e-06 0)
(7.38115e-05 -1.16989e-05 0)
(7.35943e-05 -1.41242e-05 0)
(7.33866e-05 -1.65714e-05 0)
(7.31931e-05 -1.90353e-05 0)
(7.30177e-05 -2.1513e-05 0)
(7.28651e-05 -2.40028e-05 0)
(7.74537e-05 -8.2681e-07 0)
(7.72672e-05 -3.08321e-06 0)
(7.70577e-05 -5.36705e-06 0)
(7.68347e-05 -7.68581e-06 0)
(7.66059e-05 -1.00436e-05 0)
(7.63794e-05 -1.24413e-05 0)
(7.61629e-05 -1.48755e-05 0)
(7.59631e-05 -1.73397e-05 0)
(7.5785e-05 -1.98289e-05 0)
(7.56345e-05 -2.23384e-05 0)
(8.02331e-05 4.8989e-07 0)
(8.00461e-05 -1.66964e-06 0)
(7.98385e-05 -3.86845e-06 0)
(7.96157e-05 -6.11356e-06 0)
(7.93837e-05 -8.41067e-06 0)
(7.91508e-05 -1.07632e-05 0)
(7.89263e-05 -1.31702e-05 0)
(7.87194e-05 -1.56253e-05 0)
(7.8538e-05 -1.81205e-05 0)
(7.83896e-05 -2.06473e-05 0)
(8.29482e-05 1.70147e-06 0)
(8.27676e-05 -3.4935e-07 0)
(8.25717e-05 -2.44877e-06 0)
(8.23593e-05 -4.60215e-06 0)
(8.2133e-05 -6.81727e-06 0)
(8.18996e-05 -9.10253e-06 0)
(8.16696e-05 -1.14623e-05 0)
(8.14557e-05 -1.38935e-05 0)
(8.12698e-05 -1.63869e-05 0)
(8.11233e-05 -1.89285e-05 0)
(8.5572e-05 2.80685e-06 0)
(8.54072e-05 8.65294e-07 0)
(8.52357e-05 -1.12777e-06 0)
(8.5047e-05 -3.17511e-06 0)
(8.48385e-05 -5.28716e-06 0)
(8.46145e-05 -7.47878e-06 0)
(8.43853e-05 -9.76355e-06 0)
(8.4166e-05 -1.21476e-05 0)
(8.39744e-05 -1.46259e-05 0)
(8.38289e-05 -1.71792e-05 0)
(8.8082e-05 3.82135e-06 0)
(8.79441e-05 1.97088e-06 0)
(8.78108e-05 7.84749e-08 0)
(8.76597e-05 -1.85678e-06 0)
(8.74828e-05 -3.84902e-06 0)
(8.72812e-05 -5.92032e-06 0)
(8.70631e-05 -8.09546e-06 0)
(8.68439e-05 -1.03963e-05 0)
(8.66465e-05 -1.28337e-05 0)
(8.65005e-05 -1.53922e-05 0)
(9.04708e-05 4.78527e-06 0)
(9.03712e-05 2.97898e-06 0)
(9.02865e-05 1.16377e-06 0)
(9.01821e-05 -6.66025e-07 0)
(9.00471e-05 -2.5321e-06 0)
(8.98805e-05 -4.46324e-06 0)
(8.96872e-05 -6.49369e-06 0)
(8.94792e-05 -8.66248e-06 0)
(8.92798e-05 -1.10098e-05 0)
(8.91331e-05 -1.35517e-05 0)
(9.27686e-05 5.77522e-06 0)
(9.27087e-05 3.92377e-06 0)
(9.26678e-05 2.14113e-06 0)
(9.26068e-05 3.94939e-07 0)
(9.25148e-05 -1.35302e-06 0)
(9.239e-05 -3.13952e-06 0)
(9.22342e-05 -5.00352e-06 0)
(9.20535e-05 -6.99247e-06 0)
(9.18629e-05 -9.17183e-06 0)
(9.17165e-05 -1.16217e-05 0)
(6.16533e-05 -1.2676e-05 0)
(6.12865e-05 -1.02558e-05 0)
(6.09225e-05 -8.22572e-06 0)
(6.05378e-05 -6.44853e-06 0)
(6.01098e-05 -4.83612e-06 0)
(5.96163e-05 -3.32531e-06 0)
(5.9033e-05 -1.86949e-06 0)
(5.83311e-05 -4.40294e-07 0)
(5.74779e-05 9.42359e-07 0)
(5.64622e-05 2.08971e-06 0)
(5.86082e-05 -1.13145e-05 0)
(5.8262e-05 -9.27989e-06 0)
(5.79358e-05 -7.51827e-06 0)
(5.75886e-05 -5.95265e-06 0)
(5.71952e-05 -4.51984e-06 0)
(5.67354e-05 -3.17261e-06 0)
(5.61925e-05 -1.88413e-06 0)
(5.55554e-05 -6.63497e-07 0)
(5.48274e-05 4.0839e-07 0)
(5.40345e-05 1.16265e-06 0)
(5.62303e-05 -9.79982e-06 0)
(5.58713e-05 -8.19186e-06 0)
(5.55585e-05 -6.74571e-06 0)
(5.52459e-05 -5.42833e-06 0)
(5.49061e-05 -4.20493e-06 0)
(5.45231e-05 -3.04861e-06 0)
(5.40908e-05 -1.95156e-06 0)
(5.36132e-05 -9.39917e-07 0)
(5.31024e-05 -8.5808e-08 0)
(5.25647e-05 5.24973e-07 0)
(5.44759e-05 -8.20287e-06 0)
(5.41061e-05 -7.02883e-06 0)
(5.3799e-05 -5.92849e-06 0)
(5.35145e-05 -4.89348e-06 0)
(5.32266e-05 -3.91147e-06 0)
(5.29221e-05 -2.97374e-06 0)
(5.25983e-05 -2.08432e-06 0)
(5.22579e-05 -1.268e-06 0)
(5.19003e-05 -5.68745e-07 0)
(5.15101e-05 -1.96876e-08 0)
(5.33113e-05 -6.57485e-06 0)
(5.29394e-05 -5.83183e-06 0)
(5.26381e-05 -5.09149e-06 0)
(5.23728e-05 -4.35997e-06 0)
(5.21198e-05 -3.64068e-06 0)
(5.1867e-05 -2.93771e-06 0)
(5.16107e-05 -2.25949e-06 0)
(5.13486e-05 -1.62078e-06 0)
(5.10701e-05 -1.03974e-06 0)
(5.07503e-05 -5.26025e-07 0)
(5.27138e-05 -4.95486e-06 0)
(5.2348e-05 -4.63673e-06 0)
(5.20532e-05 -4.25766e-06 0)
(5.17957e-05 -3.83469e-06 0)
(5.15528e-05 -3.38378e-06 0)
(5.13125e-05 -2.91888e-06 0)
(5.10712e-05 -2.44961e-06 0)
(5.08256e-05 -1.97886e-06 0)
(5.05646e-05 -1.50272e-06 0)
(5.02639e-05 -1.01726e-06 0)
(5.26715e-05 -3.37666e-06 0)
(5.23196e-05 -3.47574e-06 0)
(5.20311e-05 -3.44767e-06 0)
(5.17694e-05 -3.32207e-06 0)
(5.1511e-05 -3.12902e-06 0)
(5.12436e-05 -2.89386e-06 0)
(5.09645e-05 -2.62946e-06 0)
(5.06751e-05 -2.32868e-06 0)
(5.03728e-05 -1.96384e-06 0)
(5.00405e-05 -1.51091e-06 0)
(5.31841e-05 -1.87525e-06 0)
(5.28532e-05 -2.38164e-06 0)
(5.25692e-05 -2.68205e-06 0)
(5.22921e-05 -2.82711e-06 0)
(5.19983e-05 -2.86647e-06 0)
(5.16743e-05 -2.84099e-06 0)
(5.13154e-05 -2.77306e-06 0)
(5.0925e-05 -2.65299e-06 0)
(5.05126e-05 -2.42777e-06 0)
(5.00821e-05 -2.02865e-06 0)
(5.42654e-05 -4.94387e-07 0)
(5.39549e-05 -1.38982e-06 0)
(5.36651e-05 -1.98111e-06 0)
(5.3362e-05 -2.35772e-06 0)
(5.30253e-05 -2.59391e-06 0)
(5.26392e-05 -2.74794e-06 0)
(5.21906e-05 -2.85773e-06 0)
(5.16718e-05 -2.92743e-06 0)
(5.10887e-05 -2.8947e-06 0)
(5.04635e-05 -2.61847e-06 0)
(5.59422e-05 7.05438e-07 0)
(5.56167e-05 -5.2976e-07 0)
(5.52935e-05 -1.35924e-06 0)
(5.49559e-05 -1.92551e-06 0)
(5.45867e-05 -2.32454e-06 0)
(5.41682e-05 -2.62722e-06 0)
(5.36807e-05 -2.88867e-06 0)
(5.31017e-05 -3.14468e-06 0)
(5.24083e-05 -3.38534e-06 0)
(5.16003e-05 -3.44734e-06 0)
(5.19749e-05 1.69537e-06 0)
(4.65508e-05 9.15267e-07 0)
(4.16723e-05 9.71366e-07 0)
(3.68385e-05 1.10062e-06 0)
(3.20482e-05 1.00018e-06 0)
(2.73451e-05 6.70792e-07 0)
(2.27387e-05 2.01439e-07 0)
(1.82401e-05 -2.83356e-07 0)
(1.38348e-05 -5.84873e-07 0)
(9.33209e-06 -4.1393e-07 0)
(5.15806e-05 1.70309e-06 0)
(4.65438e-05 1.2511e-06 0)
(4.16458e-05 1.33174e-06 0)
(3.68315e-05 1.4559e-06 0)
(3.20887e-05 1.34713e-06 0)
(2.74255e-05 1.01056e-06 0)
(2.28353e-05 5.3532e-07 0)
(1.83186e-05 4.37797e-08 0)
(1.38651e-05 -2.7126e-07 0)
(9.42951e-06 -1.7917e-07 0)
(5.09024e-05 1.46423e-06 0)
(4.64169e-05 1.51147e-06 0)
(4.15954e-05 1.6893e-06 0)
(3.68154e-05 1.8134e-06 0)
(3.21195e-05 1.69318e-06 0)
(2.74951e-05 1.34933e-06 0)
(2.29212e-05 8.70322e-07 0)
(1.83914e-05 3.71325e-07 0)
(1.39186e-05 2.15658e-08 0)
(9.59643e-06 -1.77045e-08 0)
(5.02168e-05 1.12885e-06 0)
(4.62042e-05 1.70045e-06 0)
(4.15117e-05 2.03694e-06 0)
(3.67873e-05 2.17133e-06 0)
(3.2143e-05 2.03816e-06 0)
(2.75582e-05 1.68711e-06 0)
(2.30019e-05 1.20606e-06 0)
(1.84654e-05 6.97448e-07 0)
(1.3987e-05 2.95135e-07 0)
(9.75051e-06 1.16541e-07 0)
(4.96417e-05 7.55046e-07 0)
(4.59453e-05 1.84015e-06 0)
(4.13936e-05 2.37247e-06 0)
(3.67466e-05 2.52689e-06 0)
(3.21615e-05 2.38093e-06 0)
(2.76178e-05 2.02332e-06 0)
(2.30814e-05 1.54169e-06 0)
(1.85437e-05 1.0218e-06 0)
(1.40605e-05 5.56081e-07 0)
(9.85952e-06 2.40399e-07 0)
(4.9213e-05 3.71636e-07 0)
(4.56621e-05 1.95787e-06 0)
(4.12424e-05 2.69789e-06 0)
(3.6694e-05 2.87753e-06 0)
(3.21775e-05 2.72029e-06 0)
(2.76772e-05 2.35745e-06 0)
(2.31635e-05 1.87671e-06 0)
(1.86299e-05 1.34564e-06 0)
(1.41351e-05 8.12962e-07 0)
(9.91415e-06 3.6041e-07 0)
(4.89289e-05 1.7452e-09 0)
(4.5361e-05 2.08132e-06 0)
(4.10639e-05 3.0164e-06 0)
(3.66338e-05 3.22057e-06 0)
(3.21942e-05 3.05472e-06 0)
(2.77389e-05 2.68874e-06 0)
(2.32502e-05 2.21037e-06 0)
(1.87258e-05 1.67044e-06 0)
(1.4212e-05 1.07452e-06 0)
(9.91374e-06 4.80515e-07 0)
(4.87433e-05 -3.28983e-07 0)
(4.50262e-05 2.23573e-06 0)
(4.08641e-05 3.32996e-06 0)
(3.65722e-05 3.55365e-06 0)
(3.22157e-05 3.38314e-06 0)
(2.7806e-05 3.01676e-06 0)
(2.33438e-05 2.54218e-06 0)
(1.88341e-05 1.99756e-06 0)
(1.4301e-05 1.35001e-06 0)
(9.86774e-06 6.07328e-07 0)
(4.85445e-05 -5.7239e-07 0)
(4.46326e-05 2.43943e-06 0)
(4.06551e-05 3.63682e-06 0)
(3.65183e-05 3.87461e-06 0)
(3.22464e-05 3.70483e-06 0)
(2.78807e-05 3.34122e-06 0)
(2.3445e-05 2.87152e-06 0)
(1.89556e-05 2.3269e-06 0)
(1.44163e-05 1.64751e-06 0)
(9.80794e-06 7.5861e-07 0)
(4.80802e-05 -6.05322e-07 0)
(4.41591e-05 2.69292e-06 0)
(4.04557e-05 3.9306e-06 0)
(3.64839e-05 4.1822e-06 0)
(3.22915e-05 4.01998e-06 0)
(2.79656e-05 3.66233e-06 0)
(2.35541e-05 3.19796e-06 0)
(1.90895e-05 2.65651e-06 0)
(1.45729e-05 1.97024e-06 0)
(9.8227e-06 9.87867e-07 0)
(1.06064e-05 -4.05402e-05 0)
(1.05944e-05 -4.13609e-05 0)
(1.06232e-05 -4.22696e-05 0)
(1.07216e-05 -4.32154e-05 0)
(1.09041e-05 -4.41429e-05 0)
(1.11743e-05 -4.49975e-05 0)
(1.15279e-05 -4.57271e-05 0)
(1.19533e-05 -4.62847e-05 0)
(1.24331e-05 -4.66302e-05 0)
(1.29445e-05 -4.67323e-05 0)
(1.12748e-05 -4.05233e-05 0)
(1.12831e-05 -4.13586e-05 0)
(1.13235e-05 -4.22834e-05 0)
(1.14084e-05 -4.32481e-05 0)
(1.15455e-05 -4.41961e-05 0)
(1.17372e-05 -4.50709e-05 0)
(1.19808e-05 -4.5819e-05 0)
(1.22687e-05 -4.63915e-05 0)
(1.25887e-05 -4.67468e-05 0)
(1.29245e-05 -4.68526e-05 0)
(1.19331e-05 -4.04783e-05 0)
(1.19277e-05 -4.13318e-05 0)
(1.19507e-05 -4.22799e-05 0)
(1.2005e-05 -4.32668e-05 0)
(1.20914e-05 -4.42357e-05 0)
(1.22093e-05 -4.51301e-05 0)
(1.23567e-05 -4.58959e-05 0)
(1.25287e-05 -4.6483e-05 0)
(1.27172e-05 -4.68476e-05 0)
(1.29102e-05 -4.69558e-05 0)
(1.25815e-05 -4.03887e-05 0)
(1.25548e-05 -4.12699e-05 0)
(1.25509e-05 -4.22509e-05 0)
(1.25674e-05 -4.32675e-05 0)
(1.26002e-05 -4.4262e-05 0)
(1.26464e-05 -4.51794e-05 0)
(1.27044e-05 -4.59664e-05 0)
(1.27722e-05 -4.65717e-05 0)
(1.2845e-05 -4.69482e-05 0)
(1.29128e-05 -4.70581e-05 0)
(1.3244e-05 -4.02442e-05 0)
(1.3196e-05 -4.11708e-05 0)
(1.31647e-05 -4.21958e-05 0)
(1.31423e-05 -4.32497e-05 0)
(1.31209e-05 -4.42753e-05 0)
(1.30959e-05 -4.52206e-05 0)
(1.30663e-05 -4.60345e-05 0)
(1.30333e-05 -4.66644e-05 0)
(1.29959e-05 -4.7058e-05 0)
(1.29461e-05 -4.71699e-05 0)
(1.39554e-05 -4.00406e-05 0)
(1.3888e-05 -4.1036e-05 0)
(1.38322e-05 -4.21175e-05 0)
(1.3773e-05 -4.32155e-05 0)
(1.36985e-05 -4.42765e-05 0)
(1.36022e-05 -4.52536e-05 0)
(1.34832e-05 -4.61001e-05 0)
(1.33458e-05 -4.67632e-05 0)
(1.31947e-05 -4.71826e-05 0)
(1.30252e-05 -4.72986e-05 0)
(1.4753e-05 -3.97816e-05 0)
(1.46694e-05 -4.0871e-05 0)
(1.45932e-05 -4.20214e-05 0)
(1.4501e-05 -4.3169e-05 0)
(1.43764e-05 -4.4267e-05 0)
(1.42098e-05 -4.52772e-05 0)
(1.3999e-05 -4.61599e-05 0)
(1.37492e-05 -4.68652e-05 0)
(1.34708e-05 -4.73237e-05 0)
(1.31676e-05 -4.74498e-05 0)
(1.56735e-05 -3.94758e-05 0)
(1.55784e-05 -4.06842e-05 0)
(1.54864e-05 -4.19153e-05 0)
(1.53654e-05 -4.31154e-05 0)
(1.51954e-05 -4.425e-05 0)
(1.4964e-05 -4.52907e-05 0)
(1.46645e-05 -4.62088e-05 0)
(1.42965e-05 -4.69621e-05 0)
(1.38693e-05 -4.74772e-05 0)
(1.33976e-05 -4.76288e-05 0)
(1.67511e-05 -3.91361e-05 0)
(1.66517e-05 -4.0488e-05 0)
(1.6547e-05 -4.18082e-05 0)
(1.63999e-05 -4.3062e-05 0)
(1.61908e-05 -4.42306e-05 0)
(1.59065e-05 -4.52982e-05 0)
(1.55346e-05 -4.62455e-05 0)
(1.50614e-05 -4.70438e-05 0)
(1.44751e-05 -4.76297e-05 0)
(1.37693e-05 -4.78379e-05 0)
(1.80174e-05 -3.87772e-05 0)
(1.79247e-05 -4.0294e-05 0)
(1.78027e-05 -4.17058e-05 0)
(1.76264e-05 -4.30112e-05 0)
(1.7384e-05 -4.42135e-05 0)
(1.70642e-05 -4.53065e-05 0)
(1.66517e-05 -4.62774e-05 0)
(1.61226e-05 -4.71071e-05 0)
(1.5433e-05 -4.77539e-05 0)
(1.4476e-05 -4.80442e-05 0)
(3.79513e-07 -5.82338e-06 0)
(1.47662e-06 -5.93925e-06 0)
(2.44042e-06 -6.11364e-06 0)
(3.37611e-06 -6.29821e-06 0)
(4.31151e-06 -6.48104e-06 0)
(5.25553e-06 -6.66012e-06 0)
(6.21522e-06 -6.83697e-06 0)
(7.19697e-06 -7.01455e-06 0)
(8.21082e-06 -7.19742e-06 0)
(9.27129e-06 -7.39246e-06 0)
(2.28692e-07 -7.32762e-06 0)
(1.47437e-06 -7.35433e-06 0)
(2.56748e-06 -7.44721e-06 0)
(3.5977e-06 -7.57791e-06 0)
(4.60878e-06 -7.72634e-06 0)
(5.62104e-06 -7.88303e-06 0)
(6.64692e-06 -8.04473e-06 0)
(7.69708e-06 -8.21156e-06 0)
(8.78476e-06 -8.38631e-06 0)
(9.92797e-06 -8.5741e-06 0)
(1.63705e-07 -8.8123e-06 0)
(1.48123e-06 -8.81911e-06 0)
(2.67494e-06 -8.86913e-06 0)
(3.79702e-06 -8.95851e-06 0)
(4.88654e-06 -9.07468e-06 0)
(5.96875e-06 -9.20775e-06 0)
(7.06098e-06 -9.35231e-06 0)
(8.17792e-06 -9.50651e-06 0)
(9.33605e-06 -9.6712e-06 0)
(1.05568e-05 -9.84965e-06 0)
(1.54205e-07 -1.02974e-05 0)
(1.51943e-06 -1.03085e-05 0)
(2.78686e-06 -1.03452e-05 0)
(3.9872e-06 -1.04123e-05 0)
(5.15012e-06 -1.05057e-05 0)
(6.30009e-06 -1.06191e-05 0)
(7.45671e-06 -1.07478e-05 0)
(8.63744e-06 -1.08893e-05 0)
(9.86153e-06 -1.10432e-05 0)
(1.11533e-05 -1.12115e-05 0)
(1.86001e-07 -1.18047e-05 0)
(1.59182e-06 -1.18253e-05 0)
(2.91564e-06 -1.18624e-05 0)
(4.17962e-06 -1.19212e-05 0)
(5.4067e-06 -1.20017e-05 0)
(6.61861e-06 -1.21015e-05 0)
(7.8351e-06 -1.22174e-05 0)
(9.07502e-06 -1.23476e-05 0)
(1.03593e-05 -1.24911e-05 0)
(1.17142e-05 -1.26486e-05 0)
(2.53301e-07 -1.3344e-05 0)
(1.6961e-06 -1.33745e-05 0)
(3.06542e-06 -1.3417e-05 0)
(4.38092e-06 -1.3475e-05 0)
(5.66201e-06 -1.355e-05 0)
(6.92804e-06 -1.36415e-05 0)
(8.19796e-06 -1.37483e-05 0)
(9.49089e-06 -1.38688e-05 0)
(1.08286e-05 -1.40026e-05 0)
(1.2238e-05 -1.41496e-05 0)
(3.53896e-07 -1.49172e-05 0)
(1.82983e-06 -1.49572e-05 0)
(3.23676e-06 -1.50066e-05 0)
(4.59405e-06 -1.50674e-05 0)
(5.91961e-06 -1.51412e-05 0)
(7.23126e-06 -1.52284e-05 0)
(8.547e-06 -1.53288e-05 0)
(9.88569e-06 -1.54417e-05 0)
(1.12691e-05 -1.55666e-05 0)
(1.27242e-05 -1.57031e-05 0)
(4.87013e-07 -1.65217e-05 0)
(1.99141e-06 -1.6571e-05 0)
(3.42915e-06 -1.66276e-05 0)
(4.81997e-06 -1.66928e-05 0)
(6.18127e-06 -1.67678e-05 0)
(7.53003e-06 -1.68532e-05 0)
(8.88351e-06 -1.69492e-05 0)
(1.02601e-05 -1.70557e-05 0)
(1.16812e-05 -1.71724e-05 0)
(1.31733e-05 -1.72988e-05 0)
(6.52425e-07 -1.81532e-05 0)
(2.17991e-06 -1.82116e-05 0)
(3.64196e-06 -1.82756e-05 0)
(5.05876e-06 -1.83457e-05 0)
(6.44767e-06 -1.84229e-05 0)
(7.82526e-06 -1.85078e-05 0)
(9.20829e-06 -1.86007e-05 0)
(1.06147e-05 -1.87017e-05 0)
(1.20654e-05 -1.88107e-05 0)
(1.35861e-05 -1.89274e-05 0)
(8.5014e-07 -1.98061e-05 0)
(2.39487e-06 -1.98736e-05 0)
(3.87467e-06 -1.99449e-05 0)
(5.3102e-06 -2.00203e-05 0)
(6.71893e-06 -2.01002e-05 0)
(8.11728e-06 -2.01851e-05 0)
(9.52172e-06 -2.02756e-05 0)
(1.09498e-05 -2.03716e-05 0)
(1.2422e-05 -2.04732e-05 0)
(1.39634e-05 -2.05803e-05 0)
(1.08028e-06 -2.14743e-05 0)
(2.63607e-06 -2.15509e-05 0)
(4.12696e-06 -2.16295e-05 0)
(5.57402e-06 -2.17101e-05 0)
(6.99493e-06 -2.17929e-05 0)
(8.40612e-06 -2.18783e-05 0)
(9.82393e-06 -2.19665e-05 0)
(1.12656e-05 -2.20578e-05 0)
(1.27515e-05 -2.21522e-05 0)
(1.43061e-05 -2.22498e-05 0)
(1.34307e-06 -2.31515e-05 0)
(2.90349e-06 -2.32373e-05 0)
(4.39865e-06 -2.33232e-05 0)
(5.85002e-06 -2.3409e-05 0)
(7.27551e-06 -2.34947e-05 0)
(8.69169e-06 -2.35805e-05 0)
(1.01149e-05 -2.36666e-05 0)