/*--------------------------------*- C++ -*----------------------------------*\
| =========                 |                                                 |
| \\      /  F ield         | OpenFOAM: The Open Source CFD Toolbox           |
|  \\    /   O peration     | Version:  2106                                  |
|   \\  /    A nd           | Website:  www.openfoam.com                      |
|    \\/     M anipulation  |                                                 |
\*---------------------------------------------------------------------------*/
FoamFile
{
    version     2.0;
    format      ascii;
    arch        "LSB;label=32;scalar=64";
    class       volSymmTensorField;
    location    "60";
    object      sigma;
}
// * * * * * * * * * * * * * * * * * * * * * * * * * * * * * * * * * * * * * //

dimensions      [1 -1 -2 0 0 0 0];

internalField   nonuniform List<symmTensor> 
3500
(
(-902834 205824 4.03406e-11 -1.69236e+06 3.20984e-11 -598890)
(-965204 179022 1.7661e-12 -2.14722e+06 1.32923e-10 -718253)
(-1.00987e+06 137578 -4.98929e-11 -2.66399e+06 9.192e-11 -847814)
(-1.02772e+06 105279 -1.28372e-13 -3.07158e+06 -3.65724e-11 -945994)
(-1.03554e+06 79396.7 2.55737e-11 -3.40317e+06 -4.46531e-11 -1.02432e+06)
(-1.03976e+06 57059.1 -1.08819e-11 -3.67754e+06 5.13897e-11 -1.08861e+06)
(-1.04296e+06 36261.9 3.63201e-13 -3.90357e+06 -2.19225e-11 -1.14151e+06)
(-1.04515e+06 16491.6 6.11114e-12 -4.08508e+06 -2.72288e-11 -1.1839e+06)
(-1.04709e+06 -2832.53 -3.72886e-12 -4.22393e+06 2.8227e-11 -1.21639e+06)
(-1.04808e+06 -21616.2 1.29561e-12 -4.32086e+06 -2.89247e-11 -1.23899e+06)
(-1.04892e+06 -40159.4 -3.07532e-12 -4.37631e+06 -3.1412e-11 -1.25198e+06)
(-1.04874e+06 -58289.6 3.00992e-12 -4.39023e+06 2.28253e-11 -1.25515e+06)
(-1.04851e+06 -76225.9 6.12172e-12 -4.36256e+06 2.92248e-11 -1.24871e+06)
(-1.04718e+06 -93802.3 9.13776e-12 -4.29283e+06 4.70739e-11 -1.23231e+06)
(-1.04584e+06 -111181 0 -4.18063e+06 0 -1.20611e+06)
(-1.04334e+06 -128225 -2.65882e-11 -4.02513e+06 -5.35999e-11 -1.16965e+06)
(-1.04085e+06 -145043 -5.4247e-13 -3.82559e+06 -7.01202e-11 -1.12302e+06)
(-1.03711e+06 -161532 1.77756e-11 -3.58089e+06 6.37728e-11 -1.06569e+06)
(-1.03337e+06 -177716 2.13606e-19 -3.28999e+06 2.3394e-19 -997700)
(-1.02836e+06 -193478 -2.74054e-13 -2.95172e+06 4.93206e-11 -918479)
(-1.02339e+06 -208656 -4.56733e-11 -2.56528e+06 -8.58385e-11 -828157)
(-1.01729e+06 -222963 7.82692e-13 -2.13042e+06 -5.65956e-11 -726394)
(-1.01152e+06 -235833 -3.32431e-19 -1.64833e+06 1.60336e-19 -613813)
(-1.00519e+06 -246596 4.21922e-12 -1.12239e+06 -1.84062e-10 -490979)
(-1.00002e+06 -254217 2.6974e-11 -559230 1.87148e-12 -359827)
(-995324 -258129 5.6373e-11 31060.5 -6.77675e-11 -222522)
(-991841 -258426 5.38673e-11 637012 -1.34943e-11 -81883.5)
(-984790 -258435 -5.58285e-11 1.24898e+06 8.38956e-11 60966.3)
(-959720 -263901 -2.58523e-11 1.87484e+06 1.56141e-11 211181)
(-885392 -279824 1.19951e-11 2.47818e+06 -1.19674e-10 367567)
(-673216 772274 -5.73453e-11 -1.66023e+06 1.0528e-11 -538488)
(-765431 682046 3.9931e-12 -1.83791e+06 1.08291e-10 -600770)
(-850932 580315 5.30309e-11 -2.11518e+06 5.45223e-11 -684487)
(-890866 485625 4.28591e-11 -2.38822e+06 -7.71737e-11 -756713)
(-907933 402118 -7.32222e-13 -2.63392e+06 -2.72674e-11 -817351)
(-914957 327822 3.82859e-13 -2.84462e+06 2.31481e-11 -867594)
(-918831 258735 2.65498e-11 -3.02002e+06 -1.98132e-11 -908966)
(-920680 192970 0 -3.16091e+06 0 -941905)
(-922596 128693 -1.32135e-11 -3.26864e+06 3.05893e-11 -967208)
(-923344 65621.7 -1.0972e-11 -3.34345e+06 4.03994e-11 -984646)
(-924712 2871.1 -1.13319e-12 -3.38611e+06 -2.66681e-12 -994805)
(-924914 -59453.1 -1.75476e-11 -3.39618e+06 -4.50313e-11 -997175)
(-925993 -121959 -1.71203e-11 -3.37409e+06 -4.6054e-11 -992326)
(-925827 -184494 2.36918e-11 -3.31903e+06 3.9005e-11 -979582)
(-926703 -247529 3.06077e-11 -3.23126e+06 4.34527e-11 -959529)
(-926243 -310953 0 -3.10971e+06 0 -931373)
(-926944 -375112 -4.33856e-11 -2.95453e+06 -8.27978e-11 -895724)
(-926296 -439924 -5.08255e-11 -2.76448e+06 1.81914e-11 -851718)
(-927042 -505493 -1.0268e-12 -2.5397e+06 4.02031e-11 -800017)
(-926789 -571551 6.31567e-11 -2.27898e+06 -2.94076e-11 -739794)
(-928688 -637544 -6.18987e-19 -1.98272e+06 -2.0558e-19 -671863)
(-930856 -702375 -7.08497e-11 -1.65025e+06 -9.89799e-12 -595640)
(-937065 -763959 1.48743e-10 -1.28294e+06 1.44654e-11 -512308)
(-946066 -819513 1.27142e-11 -881652 -1.59269e-10 -421781)
(-961525 -865129 -6.84175e-11 -449897 -1.08752e-10 -325713)
(-980601 -897768 1.52527e-10 8748.08 4.94289e-11 -224274)
(-1.00069e+06 -915934 -1.42639e-11 487622 1.06274e-10 -118399)
(-1.00386e+06 -923000 -1.71074e-10 978162 1.22075e-10 -5930.9)
(-955373 -920777 1.50118e-10 1.45723e+06 -2.51796e-11 115814)
(-795021 -900845 5.19658e-11 1.87477e+06 -5.61304e-11 249174)
(-596019 988821 -1.1525e-10 -1.45577e+06 -1.47804e-11 -473490)
(-643362 925547 -1.10834e-10 -1.55028e+06 -4.40254e-11 -506224)
(-719885 829746 9.7807e-11 -1.68171e+06 -8.08812e-11 -554213)
(-768133 722317 1.34258e-10 -1.83135e+06 -6.19312e-11 -599882)
(-794418 614511 -3.82635e-11 -1.9822e+06 3.66806e-11 -640759)
(-808082 510646 -6.77532e-11 -2.12061e+06 6.65801e-12 -675853)
(-815836 410687 2.7722e-11 -2.24003e+06 2.06157e-12 -705199)
(-820474 313774 -6.1384e-19 -2.33772e+06 4.62676e-19 -728814)
(-823857 218703 6.21588e-13 -2.41297e+06 7.67697e-12 -746961)
(-826060 124835 -1.55058e-19 -2.46543e+06 4.25205e-19 -759574)
(-827944 31448.9 1.41106e-20 -2.49515e+06 1.9256e-19 -766868)
(-829026 -61743.7 8.30585e-12 -2.50188e+06 2.28426e-11 -768672)
(-830092 -155202 5.24737e-13 -2.48568e+06 -1.13842e-11 -765178)
(-830467 -249089 -4.68092e-11 -2.44616e+06 -3.1723e-11 -756144)
(-830961 -343744 3.05546e-11 -2.38333e+06 1.54068e-11 -741759)
(-830783 -439291 3.75194e-11 -2.29675e+06 1.47822e-11 -721739)
(-830821 -535980 -4.42355e-11 -2.18642e+06 -1.39856e-11 -696287)
(-830323 -633881 -9.99383e-11 -2.05186e+06 -5.9395e-11 -665120)
(-830453 -733034 1.13306e-10 -1.89306e+06 2.37368e-11 -628503)
(-830865 -833194 6.41861e-11 -1.70948e+06 -2.95668e-11 -586234)
(-833467 -933716 -2.01661e-10 -1.50102e+06 -2.70946e-11 -538728)
(-838977 -1.03329e+06 2.85345e-12 -1.26694e+06 -4.49578e-11 -485981)
(-850609 -1.12949e+06 2.29089e-10 -1.00685e+06 -3.02503e-11 -428643)
(-870256 -1.21867e+06 1.4786e-10 -719822 1.01577e-10 -366941)
(-901003 -1.29567e+06 -2.39375e-10 -405912 -2.93718e-12 -301596)
(-941412 -1.35466e+06 -1.66717e-10 -66532.4 5.05439e-11 -232603)
(-984599 -1.38975e+06 7.33458e-11 292361 4.22028e-11 -159747)
(-1.01046e+06 -1.39623e+06 -7.16449e-26 656215 9.05518e-26 -81749.8)
(-985365 -1.36777e+06 1.50348e-10 1.00248e+06 -1.87433e-11 3949.37)
(-879175 -1.29369e+06 1.29555e-11 1.29562e+06 7.50939e-11 96101.5)
(-557763 1.0744e+06 5.50948e-11 -1.14753e+06 3.88695e-11 -393528)
(-551906 1.03105e+06 5.16413e-11 -1.19963e+06 -6.71964e-11 -404200)
(-596071 951564 3.24914e-19 -1.24955e+06 -4.4747e-20 -425913)
(-633402 849866 -9.02988e-11 -1.31145e+06 1.61925e-11 -448813)
(-659308 737070 3.04457e-12 -1.38164e+06 4.4332e-11 -470987)
(-675852 620749 -3.93382e-19 -1.45172e+06 1.02242e-19 -490979)
(-686504 504424 -1.44153e-12 -1.51558e+06 -1.50652e-11 -508174)
(-693549 389237 1.38453e-12 -1.56962e+06 1.10623e-11 -522271)
(-698476 275152 -1.44435e-11 -1.61206e+06 3.28468e-12 -533200)
(-701864 161822 -7.19508e-12 -1.64194e+06 7.87397e-12 -540879)
(-704284 48793.5 -2.71711e-12 -1.65884e+06 -8.42831e-12 -545337)
(-705816 -64294.7 -7.52492e-12 -1.66241e+06 -1.70239e-11 -546514)
(-706816 -177786 -2.15057e-19 -1.65251e+06 -3.04724e-19 -544459)
(-707188 -291929 1.35871e-12 -1.62893e+06 -1.5523e-11 -539103)
(-707201 -406971 3.21219e-11 -1.59163e+06 -9.89707e-12 -530500)
(-706679 -523104 0 -1.54051e+06 0 -518581)
(-705928 -640517 0 -1.47559e+06 0 -503426)
(-704893 -759339 -5.09044e-11 -1.39679e+06 -8.55752e-12 -485004)
(-704224 -879631 5.83844e-12 -1.30414e+06 -1.04539e-10 -463469)
(-704499 -1.0013e+06 5.82895e-11 -1.19738e+06 8.25468e-11 -438894)
(-707436 -1.12394e+06 2.39155e-12 -1.07608e+06 -4.01101e-11 -411581)
(-715206 -1.24663e+06 5.39058e-12 -939150 -8.39511e-11 -381775)
(-731612 -1.36747e+06 -7.28065e-11 -784817 -4.73377e-11 -349945)
(-760955 -1.48308e+06 -8.24109e-11 -610257 4.11495e-11 -316434)
(-807894 -1.58775e+06 -4.25411e-12 -412471 4.39008e-11 -281623)
(-873728 -1.67281e+06 8.66793e-11 -189665 -4.37596e-11 -245398)
(-952785 -1.72628e+06 8.11119e-11 54841.9 -2.45954e-12 -207218)
(-1.02678e+06 -1.73395e+06 -6.52055e-11 310563 -7.57808e-11 -165281)
(-1.0675e+06 -1.68144e+06 7.71419e-19 555888 -6.46032e-20 -118063)
(-1.04997e+06 -1.56111e+06 6.3593e-12 765807 3.37378e-11 -65576.7)
(-528046 1.09647e+06 5.90892e-11 -780521 2.71005e-11 -301977)
(-477247 1.0578e+06 -5.24699e-11 -798116 3.40918e-11 -294314)
(-485730 987567 3.07935e-12 -793725 5.39717e-11 -295259)
(-502101 893442 4.66667e-11 -792215 1.97008e-11 -298688)
(-519068 783742 -3.95027e-11 -797564 4.63383e-12 -303838)
(-533323 665972 3.52527e-11 -807696 1.33611e-11 -309466)
(-544352 544920 -3.66604e-19 -819969 1.42151e-19 -314843)
(-552490 422913 -1.88314e-12 -832134 -1.05312e-11 -319529)
(-558367 300810 2.43454e-11 -842637 -1.61874e-11 -323309)
(-562426 178709 1.91081e-12 -850425 2.19441e-12 -326043)
(-565157 56473.9 9.49263e-13 -854859 1.20437e-11 -327696)
(-566788 -66137.2 2.34418e-11 -855504 -9.70546e-12 -328221)
(-567631 -189316 -1.93997e-12 -852142 1.09092e-11 -327640)
(-567729 -313267 -1.96405e-11 -844634 -3.53049e-11 -325930)
(-567271 -438133 0 -832994 0 -323138)
(-566206 -564080 1.99617e-12 -817264 -2.342e-11 -319262)
(-564739 -691231 -4.65808e-11 -797611 2.26658e-11 -314389)
(-562962 -819738 5.10237e-11 -774170 4.36987e-12 -308569)
(-561463 -949724 2.09755e-12 -747108 -3.38383e-11 -301978)
(-561047 -1.08133e+06 -6.27659e-11 -716367 -3.95671e-12 -294788)
(-563527 -1.2146e+06 6.79061e-11 -681574 3.70014e-12 -287331)
(-571625 -1.34944e+06 0 -641544 0 -279962)
(-589935 -1.48516e+06 2.56035e-12 -593917 -4.17478e-11 -273197)
(-624691 -1.61979e+06 2.88739e-12 -534457 -4.22513e-11 -267496)
(-683893 -1.7485e+06 -8.16505e-11 -456996 -1.81809e-12 -263282)
(-774669 -1.86146e+06 -7.02432e-11 -354311 -1.2431e-10 -260534)
(-898843 -1.94153e+06 1.64743e-10 -221376 -6.97061e-13 -258512)
(-1.04546e+06 -1.96456e+06 -1.47599e-18 -61776.3 -1.16585e-19 -255515)
(-1.18509e+06 -1.90566e+06 -8.39934e-11 111297 3.83778e-11 -247798)
(-1.27881e+06 -1.75438e+06 6.22361e-11 267244 2.78187e-11 -233438)
(-494181 1.07117e+06 5.46779e-11 -382881 1.22868e-11 -202399)
(-405513 1.02775e+06 1.83953e-12 -365592 2.99364e-11 -177947)
(-382432 958430 -3.58565e-12 -313690 -5.48252e-11 -160644)
(-377346 868831 -3.66547e-20 -258384 8.557e-22 -146707)
(-382662 764956 -3.98393e-12 -207703 -4.30742e-11 -136238)
(-391899 652724 0 -164371 0 -128370)
(-401213 536090 5.3736e-11 -129280 -1.28737e-13 -122422)
(-409044 417337 2.24471e-11 -102180 1.0708e-11 -117975)
(-414889 297427 -3.92186e-11 -82311.7 -9.13024e-13 -114739)
(-419004 176791 -9.15875e-13 -68943.7 3.98439e-12 -112603)
(-421584 55465.8 3.96117e-12 -61436.3 -2.61886e-12 -111466)
(-423079 -66521 -6.31836e-12 -59440.9 -6.04956e-12 -111351)
(-423580 -189264 -1.87388e-11 -62694.5 1.13766e-11 -112217)
(-423410 -312780 2.35448e-11 -71199.3 -4.03022e-13 -114141)
(-422486 -437160 2.60247e-19 -84960.7 -1.18441e-20 -117103)
(-421053 -562433 -3.77625e-11 -104219 1.5953e-13 -121216)
(-418999 -688699 -4.21692e-11 -129159 -2.72468e-11 -126498)
(-416715 -816048 5.32891e-11 -160175 -3.04757e-11 -133129)
(-414410 -944683 -2.20838e-12 -197518 3.38979e-11 -141214)
(-413136 -1.07491e+06 -2.25436e-20 -241515 1.68361e-19 -151073)
(-414235 -1.20727e+06 0 -292063 0 -162992)
(-420660 -1.34256e+06 7.25464e-11 -348612 1.60574e-12 -177525)
(-436794 -1.48171e+06 1.9527e-12 -409192 -4.19802e-11 -195228)
(-470296 -1.62522e+06 -1.59736e-10 -469638 -4.74397e-12 -216908)
(-532354 -1.77148e+06 1.64724e-10 -521791 5.2282e-12 -243264)
(-638601 -1.91338e+06 8.67628e-11 -552298 -3.86567e-11 -274823)
(-804977 -2.033e+06 -1.71794e-10 -543654 3.5032e-11 -311222)
(-1.03674e+06 -2.09782e+06 -1.69823e-10 -480678 3.43776e-11 -350175)
(-1.30877e+06 -2.06474e+06 -7.06621e-11 -368375 -3.37215e-11 -387034)
(-1.55355e+06 -1.90461e+06 1.19814e-10 -244607 2.81933e-11 -414960)
(-448371 998718 5.25002e-11 26775.1 -1.82492e-11 -97291.3)
(-326292 942960 5.42854e-11 86135.7 1.32857e-12 -55420.7)
(-279579 868742 4.77482e-11 188651 -2.69126e-11 -20983.4)
(-259199 781762 4.26041e-11 298820 -2.32049e-11 9143.21)
(-255846 686171 -4.38593e-11 404067 -4.87576e-11 34204.8)
(-260609 585426 -3.31158e-11 498080 -4.16036e-12 54800.9)
(-267481 481168 -2.66866e-11 577670 -4.74986e-12 71582.1)
(-274064 374748 8.70357e-12 641699 3.33715e-11 84838.9)
(-278911 266500 1.59898e-11 690353 1.24485e-11 94948.2)
(-282515 157077 -5.80156e-12 723875 -5.83795e-12 101852)
(-284412 46445.1 -1.66594e-12 742842 -3.9463e-12 105791)
(-285669 -64973 -9.51089e-12 747275 1.9692e-11 106525)
(-285618 -177323 -1.6195e-11 737513 5.94313e-12 104284)
(-285392 -290289 -3.10507e-12 713234 1.55377e-11 98732.8)
(-283995 -404041 3.02429e-12 674584 -1.98761e-11 90136)
(-282638 -518339 3.47341e-11 620991 1.89518e-11 78081.6)
(-280137 -633362 -3.38744e-19 552467 4.83418e-20 62845.4)
(-277928 -748996 -5.34301e-11 468231 3.5651e-11 43916)
(-274933 -865547 -5.68978e-11 368179 3.25356e-12 21518.1)
(-273179 -983287 -2.16756e-12 251370 3.79711e-11 -5032.93)
(-272350 -1.10307e+06 6.77147e-11 117685 -1.43951e-12 -35691.9)
(-276018 -1.22624e+06 7.23644e-11 -33659.2 -3.54813e-13 -71464.1)
(-286403 -1.35511e+06 1.40413e-12 -201965 -4.39397e-11 -112700)
(-311855 -1.49296e+06 -7.8722e-11 -385654 -4.68245e-11 -160964)
(-363321 -1.64333e+06 -1.84798e-25 -577979 1.03364e-25 -217223)
(-464341 -1.80704e+06 -1.75409e-10 -764160 1.66201e-10 -283500)
(-647730 -1.97437e+06 2.322e-12 -914345 -4.1837e-11 -360479)
(-953614 -2.11294e+06 1.65247e-10 -987028 4.88838e-11 -447840)
(-1.38557e+06 -2.15841e+06 -6.04428e-11 -947302 -1.08414e-10 -538354)
(-1.85583e+06 -2.03599e+06 -5.10417e-12 -833457 -3.13235e-11 -620605)
(-380344 866511 -6.18764e-11 436168 -4.05191e-11 12882.3)
(-232574 790992 -2.74858e-19 549638 -2.2518e-20 73168.8)
(-175551 710808 4.98438e-11 716456 5.55272e-12 124824)
(-150732 629144 4.19827e-11 890403 -2.14706e-11 170693)
(-145237 547789 -3.60207e-11 1.05336e+06 1.67187e-11 209567)
(-147398 465352 -6.88006e-11 1.19782e+06 -3.8682e-11 242405)
(-152620 381702 -2.30166e-11 1.32011e+06 6.72992e-12 269422)
(-156753 295819 -3.62296e-12 1.41966e+06 -1.22212e-11 291439)
(-160805 208435 3.79005e-12 1.49572e+06 7.66785e-12 308058)
(-162520 119208 1.80393e-12 1.54907e+06 8.54992e-12 319973)
(-164534 29053.9 9.0158e-13 1.57898e+06 2.17213e-11 326410)
(-164311 -62317 -7.96158e-12 1.58628e+06 1.32042e-11 328148)
(-165042 -154156 1.21855e-11 1.56992e+06 -2.8247e-13 324202)
(-163556 -246789 4.28981e-11 1.53073e+06 -6.65947e-12 315503)
(-163430 -339636 -3.75348e-12 1.46737e+06 2.07858e-11 300909)
(-160958 -432989 -7.13186e-11 1.38073e+06 -4.61894e-12 281487)
(-160087 -526424 -5.42296e-11 1.26921e+06 9.803e-11 255951)
(-156789 -620198 5.05262e-11 1.13371e+06 -8.52446e-12 225443)
(-155441 -714163 -5.56069e-12 972326 7.4314e-11 188512)
(-152048 -808767 6.03005e-19 785805 -5.82407e-20 146252)
(-151645 -904588 6.72813e-11 571779 -4.45643e-12 96954)
(-150944 -1.00303e+06 1.45374e-10 330426 -5.11434e-11 41418.8)
(-156595 -1.10676e+06 7.49288e-11 58565.9 4.68126e-11 -22622)
(-168444 -1.22044e+06 -2.38767e-10 -244226 -4.19513e-12 -95231.3)
(-200338 -1.3522e+06 -2.48159e-10 -579838 3.80798e-11 -180041)
(-269008 -1.51302e+06 1.70417e-10 -940641 -3.65463e-11 -279150)
(-423862 -1.71234e+06 8.75962e-11 -1.30324e+06 -8.6328e-11 -398563)
(-740867 -1.93782e+06 1.14811e-18 -1.60119e+06 1.21627e-19 -540476)
(-1.31817e+06 -2.12436e+06 8.05223e-11 -1.73083e+06 4.89273e-11 -703613)
(-2.12507e+06 -2.13958e+06 -7.83449e-11 -1.63878e+06 -7.22862e-12 -868580)
(-264561 636822 -6.25514e-11 834900 -4.74213e-11 131617)
(-123738 540537 -2.60611e-19 1.03272e+06 -1.84974e-20 209764)
(-79141.3 464909 9.936e-11 1.2883e+06 1.89448e-11 279037)
(-62589 401382 6.5095e-12 1.53615e+06 6.31984e-11 340052)
(-59347.7 344578 -3.84786e-11 1.75875e+06 -1.28259e-11 392169)
(-61434.5 289940 -3.24359e-11 1.95228e+06 -1.42277e-11 436349)
(-64142.7 234888 -2.60961e-11 2.11629e+06 -1.54176e-11 473572)
(-67017.7 178382 -9.22829e-12 2.25012e+06 -2.77813e-11 503792)
(-68627.2 120380 7.80316e-12 2.35386e+06 8.21855e-12 527361)
(-70148.6 61058.9 -1.5504e-11 2.42661e+06 -2.53056e-11 543799)
(-70466.8 834.121 -1.66998e-20 2.46848e+06 2.42233e-19 553387)
(-71036.4 -60098.5 -1.76472e-11 2.47847e+06 3.60946e-11 555561)
(-70557.2 -121401 0 2.45684e+06 0 550680)
(-70548.4 -183004 -3.34472e-21 2.40257e+06 -7.70756e-21 538159)
(-69529.2 -244642 5.1077e-11 2.31608e+06 1.05251e-11 518434)
(-69059 -306307 -3.71615e-11 2.1963e+06 1.60059e-11 490903)
(-67562.1 -367763 -4.37838e-11 2.04376e+06 1.49014e-11 456046)
(-66647.8 -429050 3.87912e-12 1.85732e+06 -3.62133e-11 413233)
(-64769.3 -490020 -5.6049e-11 1.63747e+06 1.19621e-11 362932)
(-63640.8 -550901 1.23159e-10 1.38285e+06 -2.02429e-11 304434)
(-61909.5 -611904 1.33287e-10 1.09354e+06 -1.6058e-11 238069)
(-61555.2 -673963 -1.8141e-12 767305 5.04318e-11 162865)
(-61724.8 -738634 -7.63828e-11 402485 5.59078e-11 78636.9)
(-65439.5 -809694 -7.99772e-11 -6372.88 1.64411e-10 -16572.1)
(-75215.9 -894677 8.11195e-11 -466348 -1.08987e-10 -124976)
(-104486 -1.0092e+06 8.24368e-11 -990179 -1.06574e-10 -252615)
(-186673 -1.17905e+06 -8.5968e-11 -1.5856e+06 4.54856e-11 -408985)
(-414461 -1.43176e+06 -9.3803e-11 -2.2329e+06 -1.25038e-10 -610929)
(-979794 -1.74937e+06 -9.25342e-11 -2.8019e+06 3.25641e-11 -872698)
(-2.10977e+06 -2.00558e+06 -7.57565e-12 -2.97149e+06 4.15418e-11 -1.1726e+06)
(-69328.8 175843 -3.01007e-12 1.16405e+06 -6.97269e-12 252628)
(17478.5 123183 -1.81808e-11 1.59486e+06 -1.14764e-11 372079)
(34669.4 96838.4 -1.63466e-11 1.96667e+06 -1.41234e-11 461847)
(40641.9 77709.1 1.87745e-11 2.28253e+06 1.25373e-10 536115)
(43407.8 60846.1 1.08719e-11 2.55696e+06 -1.33157e-11 600084)
(44564.5 44952 -1.90663e-11 2.79619e+06 -1.33877e-11 655560)
(46393.6 28384.5 8.23855e-12 3.00151e+06 2.15691e-11 703363)
(47131.3 11707.4 4.00538e-12 3.17122e+06 6.48583e-12 742695)
(48830.3 -5772.85 -2.04847e-12 3.30421e+06 -1.07552e-11 773779)
(48916.7 -23185.3 0 3.39842e+06 0 795539)
(50072.8 -41064.3 -4.26409e-12 3.45342e+06 1.53411e-12 808498)
(49186.4 -58618.6 0 3.46761e+06 0 811568)
(49557 -76337.4 6.12697e-12 3.44123e+06 -2.47368e-11 805566)
(47579.2 -93563.9 2.07166e-12 3.37291e+06 -1.83388e-11 789344)
(47070.7 -110710 9.12927e-20 3.26327e+06 -1.86125e-19 763926)
(44004.2 -127258 -1.90234e-12 3.11106e+06 2.9635e-11 728091)
(42604.2 -143505 1.77692e-12 2.91714e+06 -3.49999e-11 683018)
(38524.8 -159084 1.76187e-11 2.68038e+06 -1.92677e-11 627439)
(36274 -174173 -1.67052e-11 2.40188e+06 -7.25644e-11 562651)
(31304.5 -188597 1.75276e-19 2.08057e+06 -1.22177e-19 487356)
(28296.1 -202456 -1.92803e-19 1.71763e+06 1.02858e-19 402905)
(22626.4 -215862 2.30851e-11 1.31173e+06 1.04688e-10 307927)
(19152.1 -229017 -2.54563e-11 863391 -5.40441e-11 203664)
(13413.3 -242781 -3.69212e-13 369533 1.25935e-10 88372.1)
(10174.6 -258676 5.58395e-11 -174233 -1.2804e-10 -37859.7)
(3523.96 -281678 -2.84721e-11 -783797 6.17009e-11 -180063)
(-11080.7 -322675 3.00557e-11 -1.49831e+06 1.07932e-11 -348322)
(-74456.8 -407410 -1.41148e-12 -2.41644e+06 -7.19026e-11 -574821)
(-297524 -571537 -6.86854e-11 -3.74081e+06 -1.2699e-10 -931923)
(-884918 -797656 -6.86891e-12 -5.48232e+06 -7.66805e-12 -1.46936e+06)
(65079.9 -99055.8 2.31447e-11 479612 -3.85839e-11 125698)
(-242310 183016 8.79712e-11 540148 6.83843e-11 68731.8)
(-503077 333815 -3.24832e-11 238784 1.91666e-11 -60990.6)
(-728137 439451 2.36862e-11 -17651.9 2.19465e-11 -172105)
(-968744 540333 4.80843e-11 -245216 1.14064e-12 -280145)
(-1.23523e+06 659970 3.68423e-11 -457974 -5.05107e-11 -390740)
(-1.53422e+06 815361 3.70957e-11 -673960 6.64045e-12 -509580)
(-1.85574e+06 1.02886e+06 2.81322e-11 -924286 1.19696e-11 -641545)
(-2.09658e+06 1.34846e+06 5.85213e-11 -1.31843e+06 3.86883e-11 -788078)
(-1.88009e+06 1.98047e+06 0 -2.45181e+06 0 -999669)
(-83678.2 59745.8 3.27724e-12 157532 -2.83701e-11 17043.2)
(-263414 231417 -6.08631e-11 414918 -4.77721e-11 34962.5)
(-475826 404420 3.85305e-11 241451 9.63267e-11 -54086.6)
(-661913 549212 -6.56086e-11 20864.8 -7.09481e-11 -147934)
(-853587 676860 -5.88843e-12 -216140 -3.10329e-11 -246860)
(-1.05635e+06 811728 -6.17709e-11 -457617 -2.77252e-11 -349376)
(-1.26502e+06 975044 3.36767e-22 -714756 4.98816e-20 -456871)
(-1.45451e+06 1.18673e+06 -1.32203e-10 -1.02048e+06 -3.6547e-11 -571151)
(-1.55905e+06 1.45975e+06 -6.96093e-20 -1.43988e+06 -3.68412e-20 -692062)
(-1.53485e+06 1.7566e+06 1.87843e-11 -2.11065e+06 -9.21716e-12 -841271)
(-182650 156036 2.52075e-11 1467.99 -2.24775e-12 -41811.3)
(-329865 270524 -3.01456e-12 246432 -4.49884e-11 -19253.7)
(-503467 422717 3.68775e-11 168579 6.3649e-11 -77281.7)
(-656557 576332 4.26022e-11 9555.1 9.51539e-11 -149308)
(-806542 719501 -3.84314e-11 -199813 -5.21352e-11 -232236)
(-956535 861690 2.08145e-11 -438504 -4.75978e-11 -321932)
(-1.10108e+06 1.0167e+06 1.32831e-11 -704840 5.79368e-11 -416750)
(-1.22278e+06 1.19439e+06 4.13307e-11 -1.01267e+06 3.73203e-11 -515873)
(-1.29457e+06 1.38815e+06 -1.96924e-11 -1.38438e+06 -7.43949e-11 -618219)
(-1.33278e+06 1.54564e+06 3.37917e-12 -1.85641e+06 -1.26025e-11 -735968)
(-253745 233125 -1.46371e-11 -105545 2.93257e-11 -82913)
(-377221 318576 3.76497e-11 100269 7.21319e-11 -63912)
(-526304 441952 4.08491e-12 69543.2 4.3838e-11 -105406)
(-657431 583035 3.95472e-11 -36014.7 6.21623e-11 -160026)
(-780568 725030 2.94508e-11 -205110 -1.81608e-11 -227464)
(-897300 865594 -5.75677e-12 -420630 -3.47835e-11 -304138)
(-1.00497e+06 1.00877e+06 3.52838e-11 -674113 1.48249e-11 -387480)
(-1.09566e+06 1.15755e+06 7.14027e-11 -966037 2.4903e-11 -475777)
(-1.15969e+06 1.30506e+06 4.19238e-11 -1.30228e+06 3.82097e-11 -568146)
(-1.22234e+06 1.41563e+06 -2.54427e-11 -1.69828e+06 2.69223e-11 -673989)
(-310833 298022 2.13996e-13 -187850 -2.75655e-11 -115081)
(-411600 367642 3.31291e-11 -16121 -2.31717e-11 -98704.8)
(-542527 465657 3.983e-12 -30035.9 4.59902e-11 -132130)
(-658588 586567 4.1012e-11 -100569 6.58294e-11 -175190)
(-765419 716547 0 -231156 0 -229979)
(-862928 848768 -1.10315e-11 -413665 -7.57028e-11 -294598)
(-950421 980802 3.67447e-11 -640545 1.65299e-11 -367146)
(-1.02472e+06 1.1118e+06 -6.83012e-11 -907733 4.7144e-12 -445952)
(-1.08243e+06 1.23724e+06 -2.63546e-26 -1.21705e+06 -1.54727e-25 -530649)
(-1.15401e+06 1.32914e+06 -5.87747e-12 -1.5859e+06 1.65933e-11 -632286)
(-358836 353181 1.48746e-11 -254509 -3.02473e-11 -141541)
(-438473 414053 3.75083e-11 -107393 2.56744e-11 -125969)
(-553666 492598 -3.36873e-11 -117207 2.30178e-11 -154817)
(-657350 593416 4.21954e-11 -167795 6.87862e-11 -190418)
(-753076 707055 -2.87461e-19 -268496 -2.93861e-19 -235747)
(-839340 826798 2.72668e-11 -418398 -6.11689e-11 -290247)
(-915073 947866 -2.71479e-11 -613931 5.86445e-11 -352847)
(-978995 1.06709e+06 8.17993e-11 -852362 6.84119e-11 -422621)
(-1.02985e+06 1.18057e+06 3.31934e-11 -1.13628e+06 -2.06739e-11 -499875)
(-1.10297e+06 1.26156e+06 -6.99366e-12 -1.49155e+06 1.85648e-11 -598736)
(-399840 400282 2.99917e-11 -309921 -6.07533e-11 -163791)
(-460666 456225 -7.73623e-11 -180161 -5.18306e-11 -147883)
(-561747 520487 -3.49526e-11 -190105 2.4034e-11 -173504)
(-654111 604238 -3.88194e-11 -229784 -2.40307e-11 -203976)
(-740478 701463 -3.89501e-11 -309382 -2.27244e-11 -242276)
(-818416 807265 -4.42328e-11 -431676 -6.42164e-11 -288483)
(-886489 916677 -4.45053e-11 -597173 -6.04878e-11 -342383)
(-943098 1.02567e+06 7.34637e-11 -806079 -3.84925e-12 -403656)
(-986897 1.13012e+06 -2.94902e-11 -1.0631e+06 5.93016e-11 -473076)
(-1.05834e+06 1.20176e+06 2.33686e-11 -1.40406e+06 1.63282e-11 -568245)
(-435105 440608 -1.50843e-11 -356764 3.10045e-11 -182739)
(-479561 493687 -7.63798e-11 -239536 -4.41082e-13 -165945)
(-568032 547523 3.97417e-11 -250458 2.54328e-11 -188882)
(-649645 617706 -3.56144e-11 -283873 2.41168e-11 -215427)
(-727134 700337 -3.99532e-11 -348982 -2.34414e-11 -248335)
(-797867 792345 -9.89846e-12 -449755 -9.01741e-11 -287913)
(-859402 889816 -4.53335e-11 -588894 -6.39713e-11 -334222)
(-909893 988484 -3.52988e-11 -769671 2.25802e-11 -387592)
(-947503 1.08386e+06 -8.58067e-11 -998911 -7.4701e-11 -449172)
(-1.01633e+06 1.14586e+06 3.96739e-11 -1.32058e+06 -5.19962e-11 -539286)
(-465477 475295 -3.41948e-11 -396831 7.52648e-12 -198994)
(-495834 526634 -4.36761e-11 -288888 -7.90097e-11 -181090)
(-573256 572645 8.12869e-11 -300639 5.14658e-11 -201668)
(-644990 632157 8.15202e-12 -330052 9.98378e-11 -225010)
(-713812 702509 3.63629e-11 -384953 -2.43779e-11 -253561)
(-777158 782039 -4.57169e-11 -469126 -6.97849e-11 -287604)
(-832700 867720 -4.11089e-11 -586505 -2.16664e-11 -327509)
(-877823 955712 -4.12466e-11 -742042 -2.02507e-11 -373815)
(-909770 1.04158e+06 -8.82379e-21 -943693 4.60291e-20 -427722)
(-976247 1.09339e+06 -5.09302e-11 -1.24169e+06 7.29363e-12 -511831)
(-491809 505330 1.52017e-19 -431641 9.38046e-20 -213104)
(-510151 555515 -9.20451e-12 -330582 -1.60155e-10 -194015)
(-577972 595449 3.78962e-11 -342599 -2.62343e-11 -212440)
(-640657 646506 4.94163e-11 -368948 1.27346e-10 -232986)
(-701252 706666 8.75035e-11 -416328 9.87789e-11 -257903)
(-757574 775135 8.5618e-19 -487885 8.74208e-19 -287414)
(-806891 849918 3.7152e-11 -587385 -2.45044e-11 -321756)
(-846744 927462 5.56157e-19 -720922 4.6921e-19 -361769)
(-874081 1.00347e+06 4.66392e-11 -896867 6.45444e-11 -408680)
(-938810 1.045e+06 -1.10284e-11 -1.16898e+06 2.42446e-11 -486413)
(-514841 531715 1.79452e-11 -462491 -4.25023e-12 -225538)
(-523052 581001 -6.16939e-12 -366206 -1.08082e-10 -205213)
(-582676 615962 -4.56625e-11 -377847 -7.92783e-11 -221659)
(-637414 660054 3.85937e-12 -401525 5.19495e-11 -239755)
(-690332 711710 1.11504e-20 -442948 4.97822e-21 -261526)
(-739564 770739 8.4777e-11 -504427 4.83116e-11 -287075)
(-783035 835582 -4.30196e-20 -589621 -1.40703e-20 -316767)
(-818033 903208 8.52763e-11 -704598 4.43322e-11 -351376)
(-841121 969767 -1.70547e-20 -857239 -1.02077e-21 -391929)
(-904725 1.00146e+06 2.04873e-11 -1.10366e+06 -9.00735e-12 -463472)
(-535440 555418 -1.55726e-11 -490731 3.15175e-11 -236809)
(-535260 603795 3.96994e-11 -397127 -2.77135e-11 -215166)
(-587914 634484 -8.90831e-11 -407498 -1.06689e-10 -229710)
(-635557 672675 -3.90467e-11 -428380 2.6815e-11 -245524)
(-681510 717054 -4.6938e-11 -464806 -7.71497e-11 -264534)
(-724368 767782 -4.29763e-11 -518337 -2.46461e-11 -286778)
(-761934 823935 3.87166e-11 -591721 -2.5928e-11 -312382)
(-792122 882639 -4.3191e-11 -691092 -2.2923e-11 -342280)
(-811765 940349 -3.48671e-11 -823700 7.40412e-11 -377415)
(-874571 963136 -2.08266e-11 -1.04634e+06 7.65817e-12 -443288)
(-554404 577477 1.55747e-11 -517665 -3.2405e-11 -247401)
(-547396 624738 8.68089e-11 -424403 5.41664e-11 -224261)
(-594208 651492 -3.99231e-11 -432435 2.76576e-11 -236918)
(-635753 684348 0 -450238 0 -250613)
(-675361 722324 0 -482103 0 -267107)
(-711957 765902 -8.26163e-12 -528805 -1.03521e-10 -286330)
(-744188 814280 4.35825e-11 -592740 2.43743e-11 -308522)
(-770001 864972 -7.88942e-11 -679369 5.29122e-11 -334470)
(-786227 914939 4.37648e-11 -794882 2.27028e-11 -364871)
(-848339 929977 4.10349e-11 -996840 -1.6416e-11 -425811)
(-572683 598941 3.44869e-11 -544744 -3.81715e-11 -257868)
(-560279 644647 4.39588e-11 -449175 2.72285e-11 -232951)
(-602171 667534 4.74115e-11 -453432 8.17881e-11 -243601)
(-638226 695396 -4.39234e-11 -467419 -2.64889e-11 -255149)
(-672082 727479 -3.90911e-12 -494878 -5.33923e-11 -269299)
(-703141 764483 8.39017e-11 -535903 -1.66543e-12 -285933)
(-730000 806076 -3.9908e-11 -591853 2.69852e-11 -305043)
(-751399 849812 1.19263e-21 -667981 -9.23997e-21 -327549)
(-764653 892918 3.62054e-11 -769694 -7.76082e-11 -354080)
(-825819 901498 5.38924e-11 -954528 -4.49677e-11 -410849)
(-591166 620942 1.58586e-11 -573429 -3.20576e-11 -268753)
(-574623 664442 7.43478e-20 -472447 1.63817e-19 -241632)
(-612386 683228 1.05495e-11 -471184 1.66121e-10 -250055)
(-643632 706027 4.81334e-11 -480497 8.14309e-11 -259414)
(-672094 732460 -5.60654e-11 -503323 -1.88455e-10 -271250)
(-697538 763500 -4.84067e-11 -538990 -7.92126e-11 -285353)
(-719462 798824 8.10621e-12 -588518 1.05388e-10 -301842)
(-736689 836319 7.84376e-21 -656331 -4.82578e-20 -321466)
(-746597 873661 -5.23422e-11 -746816 -1.27062e-10 -344634)
(-806364 876997 -2.76114e-11 -918314 -1.37587e-11 -398003)
(-610892 644638 1.56668e-11 -605349 -3.35985e-11 -280671)
(-591340 684996 -4.49639e-11 -495420 -2.74311e-11 -250791)
(-625528 699174 -4.92451e-19 -486428 -5.4346e-19 -256605)
(-652191 716667 9.34709e-11 -489690 1.09052e-10 -263511)
(-675498 737381 4.87201e-11 -507439 8.12044e-11 -272985)
(-695748 762489 -9.75751e-11 -538279 -1.60428e-10 -284776)
(-712419 792096 -4.48057e-11 -582138 -2.57003e-11 -298744)
(-725127 824084 3.97294e-12 -643195 5.29017e-11 -315767)
(-731718 856310 -4.48675e-11 -725231 -2.45502e-11 -336219)
(-789317 855537 -4.11171e-11 -887024 1.47801e-11 -386848)
(-632825 671252 1.97987e-11 -642157 -5.63541e-12 -294227)
(-611194 707281 0 -519179 0 -260855)
(-642198 716027 4.5337e-11 -499836 2.7324e-11 -263546)
(-664556 727546 -4.52589e-11 -495547 -2.71211e-11 -267716)
(-682660 742222 9.43518e-11 -507406 1.08784e-10 -274631)
(-697246 761494 4.01128e-12 -533138 5.46059e-11 -283935)
(-708721 785435 -4.51359e-11 -572288 -2.60822e-11 -295617)
(-716782 812220 0 -628161 0 -310371)
(-719264 840081 0 -703687 0 -328373)
(-773757 836146 0 -859255 0 -376849)
(-658036 702010 -4.01805e-11 -685637 1.19496e-11 -310078)
(-635088 732200 -9.16796e-11 -545020 -5.48482e-11 -272333)
(-663045 734392 3.80288e-12 -512186 5.62381e-11 -271207)
(-680902 739100 4.56295e-11 -498249 2.72733e-11 -272112)
(-693612 747100 -4.55384e-11 -503181 -2.70777e-11 -276183)
(-702522 760038 -4.13978e-11 -523805 2.82917e-11 -282998)
(-708075 778386 0 -558444 0 -292274)