/*--------------------------------*- C++ -*----------------------------------*\
| =========                 |                                                 |
| \\      /  F ield         | OpenFOAM: The Open Source CFD Toolbox           |
|  \\    /   O peration     | Version:  2106                                  |
|   \\  /    A nd           | Website:  www.openfoam.com                      |
|    \\/     M anipulation  |                                                 |
\*---------------------------------------------------------------------------*/
FoamFile
{
    version     2.0;
    format      ascii;
    arch        "LSB;label=32;scalar=64";
    class       volVectorField;
    location    "20";
    object      D;
}
// * * * * * * * * * * * * * * * * * * * * * * * * * * * * * * * * * * * * * //

dimensions      [0 1 0 0 0 0 0];

internalField   nonuniform List<vector> 
3500
(
(6.21915e-05 6.50071e-06 0)
(6.394e-05 6.33189e-06 0)
(6.55729e-05 6.06265e-06 0)
(6.70843e-05 5.71004e-06 0)
(6.84717e-05 5.28832e-06 0)
(6.97307e-05 4.8042e-06 0)
(7.08517e-05 4.26731e-06 0)
(7.1826e-05 3.68256e-06 0)
(7.26449e-05 3.05948e-06 0)
(7.33009e-05 2.4028e-06 0)
(7.37889e-05 1.72206e-06 0)
(7.41035e-05 1.02179e-06 0)
(7.42429e-05 3.1135e-07 0)
(7.42038e-05 -4.04765e-07 0)
(7.39877e-05 -1.11733e-06 0)
(7.3593e-05 -1.82151e-06 0)
(7.30245e-05 -2.50801e-06 0)
(7.22827e-05 -3.17114e-06 0)
(7.13757e-05 -3.80132e-06 0)
(7.03065e-05 -4.39146e-06 0)
(6.90873e-05 -4.93141e-06 0)
(6.77245e-05 -5.41228e-06 0)
(6.62355e-05 -5.8234e-06 0)
(6.46324e-05 -6.15433e-06 0)
(6.29391e-05 -6.39519e-06 0)
(6.11745e-05 -6.53602e-06 0)
(5.93649e-05 -6.57063e-06 0)
(5.75251e-05 -6.49079e-06 0)
(5.56616e-05 -6.29337e-06 0)
(5.37665e-05 -5.95933e-06 0)
(6.20149e-05 5.05399e-06 0)
(6.3739e-05 4.89803e-06 0)
(6.53778e-05 4.69168e-06 0)
(6.69066e-05 4.42687e-06 0)
(6.83136e-05 4.10632e-06 0)
(6.95902e-05 3.7349e-06 0)
(7.07268e-05 3.3197e-06 0)
(7.17143e-05 2.86624e-06 0)
(7.25441e-05 2.38141e-06 0)
(7.32089e-05 1.8703e-06 0)
(7.37033e-05 1.3395e-06 0)
(7.40225e-05 7.93818e-07 0)
(7.4164e-05 2.39616e-07 0)
(7.41255e-05 -3.18372e-07 0)
(7.39072e-05 -8.73834e-07 0)
(7.3509e-05 -1.42185e-06 0)
(7.29339e-05 -1.95596e-06 0)
(7.21842e-05 -2.47073e-06 0)
(7.12658e-05 -2.95934e-06 0)
(7.01837e-05 -3.41552e-06 0)
(6.89474e-05 -3.83182e-06 0)
(6.75659e-05 -4.2009e-06 0)
(6.60534e-05 -4.51467e-06 0)
(6.44248e-05 -4.76471e-06 0)
(6.2701e-05 -4.94256e-06 0)
(6.09035e-05 -5.03928e-06 0)
(5.90569e-05 -5.04684e-06 0)
(5.71819e-05 -4.95745e-06 0)
(5.52957e-05 -4.76722e-06 0)
(5.34225e-05 -4.48553e-06 0)
(6.18604e-05 3.81416e-06 0)
(6.35606e-05 3.67378e-06 0)
(6.51931e-05 3.50638e-06 0)
(6.67293e-05 3.30361e-06 0)
(6.81498e-05 3.0626e-06 0)
(6.94407e-05 2.78487e-06 0)
(7.05904e-05 2.47447e-06 0)
(7.1589e-05 2.13589e-06 0)
(7.24278e-05 1.77398e-06 0)
(7.30998e-05 1.3931e-06 0)
(7.35994e-05 9.97751e-07 0)
(7.39222e-05 5.91918e-07 0)
(7.40654e-05 1.79838e-07 0)
(7.40272e-05 -2.34643e-07 0)
(7.38072e-05 -6.47357e-07 0)
(7.3406e-05 -1.05439e-06 0)
(7.28259e-05 -1.45146e-06 0)
(7.20696e-05 -1.83437e-06 0)
(7.11422e-05 -2.19851e-06 0)
(7.00494e-05 -2.5392e-06 0)
(6.87995e-05 -2.85125e-06 0)
(6.7402e-05 -3.12917e-06 0)
(6.58697e-05 -3.36684e-06 0)
(6.42178e-05 -3.55752e-06 0)
(6.24659e-05 -3.69376e-06 0)
(6.06365e-05 -3.76744e-06 0)
(5.87557e-05 -3.77095e-06 0)
(5.68514e-05 -3.69867e-06 0)
(5.49545e-05 -3.55259e-06 0)
(5.31046e-05 -3.34177e-06 0)
(6.17088e-05 2.69148e-06 0)
(6.33963e-05 2.57623e-06 0)
(6.50234e-05 2.44483e-06 0)
(6.65628e-05 2.29297e-06 0)
(6.7992e-05 2.11808e-06 0)
(6.92934e-05 1.92041e-06 0)
(7.04531e-05 1.70219e-06 0)
(7.14601e-05 1.46642e-06 0)
(7.23057e-05 1.21625e-06 0)
(7.29829e-05 9.54622e-07 0)
(7.34862e-05 6.84317e-07 0)
(7.38115e-05 4.07887e-07 0)
(7.39559e-05 1.27817e-07 0)
(7.39178e-05 -1.53518e-07 0)
(7.36967e-05 -4.33738e-07 0)
(7.32934e-05 -7.1048e-07 0)
(7.27099e-05 -9.81326e-07 0)
(7.19491e-05 -1.24379e-06 0)
(7.10157e-05 -1.49527e-06 0)
(6.99154e-05 -1.73298e-06 0)
(6.86558e-05 -1.95389e-06 0)
(6.72462e-05 -2.1545e-06 0)
(6.56982e-05 -2.33076e-06 0)
(6.40265e-05 -2.47763e-06 0)
(6.22492e-05 -2.589e-06 0)
(6.03895e-05 -2.65766e-06 0)
(5.84759e-05 -2.67619e-06 0)
(5.6543e-05 -2.63951e-06 0)
(5.46311e-05 -2.54654e-06 0)
(5.27885e-05 -2.4065e-06 0)
(6.15534e-05 1.63266e-06 0)
(6.32391e-05 1.54959e-06 0)
(6.4867e-05 1.45554e-06 0)
(6.6411e-05 1.35044e-06 0)
(6.78472e-05 1.23435e-06 0)
(6.9156e-05 1.1084e-06 0)
(7.03224e-05 9.74317e-07 0)
(7.13348e-05 8.33792e-07 0)
(7.21844e-05 6.88394e-07 0)
(7.28646e-05 5.39351e-07 0)
(7.33699e-05 3.87748e-07 0)
(7.36964e-05 2.34437e-07 0)
(7.38414e-05 8.02339e-08 0)
(7.38033e-05 -7.41767e-08 0)
(7.35818e-05 -2.28095e-07 0)
(7.31775e-05 -3.80896e-07 0)
(7.25924e-05 -5.31927e-07 0)
(7.18296e-05 -6.80564e-07 0)
(7.08934e-05 -8.26135e-07 0)
(6.97893e-05 -9.67896e-07 0)
(6.85246e-05 -1.10495e-06 0)
(6.71077e-05 -1.23605e-06 0)
(6.55492e-05 -1.35941e-06 0)
(6.38624e-05 -1.47226e-06 0)
(6.20639e-05 -1.57039e-06 0)
(6.01758e-05 -1.64764e-06 0)
(5.82277e-05 -1.69605e-06 0)
(5.62587e-05 -1.70702e-06 0)
(5.43169e-05 -1.67536e-06 0)
(5.24577e-05 -1.59932e-06 0)
(6.13927e-05 6.06658e-07 0)
(6.30866e-05 5.54167e-07 0)
(6.47235e-05 4.95502e-07 0)
(6.62761e-05 4.33695e-07 0)
(6.77193e-05 3.72409e-07 0)
(6.9033e-05 3.14375e-07 0)
(7.02026e-05 2.61172e-07 0)
(7.12168e-05 2.13134e-07 0)
(7.20675e-05 1.70142e-07 0)
(7.2748e-05 1.315e-07 0)
(7.32534e-05 9.65607e-08 0)
(7.35798e-05 6.4334e-08 0)
(7.37248e-05 3.40172e-08 0)
(7.36867e-05 4.51605e-09 0)
(7.34652e-05 -2.50633e-08 0)
(7.30612e-05 -5.58989e-08 0)
(7.24765e-05 -8.90008e-08 0)
(7.17142e-05 -1.2565e-07 0)
(7.07784e-05 -1.66999e-07 0)
(6.96747e-05 -2.14407e-07 0)
(6.84096e-05 -2.69084e-07 0)
(6.69911e-05 -3.32227e-07 0)
(6.54286e-05 -4.04634e-07 0)
(6.37334e-05 -4.86429e-07 0)
(6.19198e-05 -5.76252e-07 0)
(6.00069e-05 -6.70151e-07 0)
(5.80216e-05 -7.59872e-07 0)
(5.60036e-05 -8.32291e-07 0)
(5.40074e-05 -8.70548e-07 0)
(5.21017e-05 -8.64843e-07 0)
(6.12275e-05 -4.22189e-07 0)
(6.29408e-05 -4.48553e-07 0)
(6.4596e-05 -4.78125e-07 0)
(6.61612e-05 -5.00727e-07 0)
(6.76106e-05 -5.08598e-07 0)
(6.89259e-05 -4.97806e-07 0)
(7.00944e-05 -4.68257e-07 0)
(7.11065e-05 -4.21275e-07 0)
(7.19547e-05 -3.5942e-07 0)
(7.2633e-05 -2.8503e-07 0)
(7.31365e-05 -2.0098e-07 0)
(7.34616e-05 -1.09641e-07 0)
(7.36058e-05 -1.38706e-08 0)
(7.35675e-05 8.39633e-08 0)
(7.33467e-05 1.80974e-07 0)
(7.2944e-05 2.7469e-07 0)
(7.23615e-05 3.62099e-07 0)
(7.16021e-05 4.40497e-07 0)
(7.06702e-05 5.06641e-07 0)
(6.95707e-05 5.57485e-07 0)
(6.83103e-05 5.89498e-07 0)
(6.68961e-05 5.99284e-07 0)
(6.53369e-05 5.83134e-07 0)
(6.3642e-05 5.37677e-07 0)
(6.18228e-05 4.60148e-07 0)
(5.98927e-05 3.50148e-07 0)
(5.78715e-05 2.12924e-07 0)
(5.57917e-05 6.36847e-08 0)
(5.37102e-05 -6.92283e-08 0)
(5.17142e-05 -1.50708e-07 0)
(6.10612e-05 -1.48176e-06 0)
(6.28097e-05 -1.50095e-06 0)
(6.44922e-05 -1.51435e-06 0)
(6.60705e-05 -1.50099e-06 0)
(6.75211e-05 -1.45175e-06 0)
(6.88323e-05 -1.36508e-06 0)
(6.99943e-05 -1.24495e-06 0)
(7.1e-05 -1.09495e-06 0)
(7.18423e-05 -9.208e-07 0)
(7.25158e-05 -7.26047e-07 0)
(7.30155e-05 -5.16219e-07 0)
(7.33379e-05 -2.94473e-07 0)
(7.34807e-05 -6.61719e-08 0)
(7.34421e-05 1.65695e-07 0)
(7.32225e-05 3.95776e-07 0)
(7.28219e-05 6.21e-07 0)
(7.22434e-05 8.35895e-07 0)
(7.14889e-05 1.03706e-06 0)
(7.05639e-05 1.21875e-06 0)
(6.94721e-05 1.37696e-06 0)
(6.82212e-05 1.50554e-06 0)
(6.68169e-05 1.59962e-06 0)
(6.52687e-05 1.65237e-06 0)
(6.35834e-05 1.65767e-06 0)
(6.17714e-05 1.6078e-06 0)
(5.98387e-05 1.4961e-06 0)
(5.77946e-05 1.31852e-06 0)
(5.56509e-05 1.08179e-06 0)
(5.34511e-05 8.19797e-07 0)
(5.12993e-05 5.9558e-07 0)
(6.09044e-05 -2.62476e-06 0)
(6.27106e-05 -2.67437e-06 0)
(6.44235e-05 -2.68e-06 0)
(6.6004e-05 -2.6223e-06 0)
(6.74465e-05 -2.5e-06 0)
(6.87447e-05 -2.32301e-06 0)
(6.98951e-05 -2.09681e-06 0)
(7.08898e-05 -1.83186e-06 0)
(7.17235e-05 -1.53202e-06 0)
(7.23897e-05 -1.20678e-06 0)
(7.28838e-05 -8.58975e-07 0)
(7.32027e-05 -4.97628e-07 0)
(7.33429e-05 -1.25139e-07 0)
(7.33047e-05 2.49702e-07 0)
(7.30856e-05 6.24472e-07 0)
(7.26892e-05 9.90538e-07 0)
(7.21146e-05 1.34504e-06 0)
(7.13683e-05 1.67943e-06 0)
(7.04507e-05 1.98999e-06 0)
(6.93713e-05 2.26816e-06 0)
(6.81317e-05 2.50888e-06 0)
(6.6744e-05 2.70338e-06 0)
(6.52108e-05 2.84466e-06 0)
(6.35461e-05 2.9231e-06 0)
(6.1752e-05 2.92828e-06 0)
(5.98391e-05 2.84783e-06 0)
(5.77975e-05 2.6648e-06 0)
(5.56191e-05 2.36685e-06 0)
(5.32897e-05 1.95147e-06 0)
(5.08919e-05 1.48496e-06 0)
(6.08018e-05 -3.99489e-06 0)
(6.26729e-05 -4.10513e-06 0)
(6.43871e-05 -4.0677e-06 0)
(6.59504e-05 -3.92383e-06 0)
(6.73709e-05 -3.69852e-06 0)
(6.86508e-05 -3.40441e-06 0)
(6.97845e-05 -3.05381e-06 0)
(7.07659e-05 -2.65369e-06 0)
(7.15883e-05 -2.21407e-06 0)
(7.22455e-05 -1.7406e-06 0)
(7.27333e-05 -1.24257e-06 0)
(7.3047e-05 -7.25044e-07 0)
(7.31855e-05 -1.96866e-07 0)
(7.31457e-05 3.37044e-07 0)
(7.29294e-05 8.68134e-07 0)
(7.25353e-05 1.39127e-06 0)
(7.19681e-05 1.89802e-06 0)
(7.12281e-05 2.3827e-06 0)
(7.03228e-05 2.83686e-06 0)
(6.9254e-05 3.25385e-06 0)
(6.80319e-05 3.62498e-06 0)
(6.66597e-05 3.94213e-06 0)
(6.51497e-05 4.19599e-06 0)
(6.35066e-05 4.37642e-06 0)
(6.17431e-05 4.47309e-06 0)
(5.98603e-05 4.47241e-06 0)
(5.78562e-05 4.35918e-06 0)
(5.56961e-05 4.10311e-06 0)
(5.33111e-05 3.6506e-06 0)
(5.06406e-05 2.89498e-06 0)
(1.87893e-05 -1.03943e-05 0)
(1.86462e-05 -1.12258e-05 0)
(1.84692e-05 -1.19849e-05 0)
(1.82638e-05 -1.26753e-05 0)
(1.80281e-05 -1.33104e-05 0)
(1.77581e-05 -1.3901e-05 0)
(1.7449e-05 -1.44502e-05 0)
(1.70954e-05 -1.49601e-05 0)
(1.67014e-05 -1.54339e-05 0)
(1.63162e-05 -1.58985e-05 0)
(2.00189e-05 -9.89109e-06 0)
(1.98704e-05 -1.06995e-05 0)
(1.96924e-05 -1.14736e-05 0)
(1.949e-05 -1.21993e-05 0)
(1.92651e-05 -1.28753e-05 0)
(1.90175e-05 -1.35075e-05 0)
(1.87477e-05 -1.41015e-05 0)
(1.84593e-05 -1.46648e-05 0)
(1.81664e-05 -1.52113e-05 0)
(1.79074e-05 -1.57697e-05 0)
(2.12742e-05 -9.40103e-06 0)
(2.11266e-05 -1.0199e-05 0)
(2.0954e-05 -1.09755e-05 0)
(2.07606e-05 -1.17207e-05 0)
(2.0549e-05 -1.24286e-05 0)
(2.03221e-05 -1.30992e-05 0)
(2.00836e-05 -1.37367e-05 0)
(1.98398e-05 -1.43496e-05 0)
(1.96033e-05 -1.49526e-05 0)
(1.93939e-05 -1.55663e-05 0)
(2.25536e-05 -8.92026e-06 0)
(2.24063e-05 -9.71481e-06 0)
(2.22394e-05 -1.04922e-05 0)
(2.2056e-05 -1.12482e-05 0)
(2.18581e-05 -1.1978e-05 0)
(2.16487e-05 -1.26794e-05 0)
(2.14325e-05 -1.33541e-05 0)
(2.12161e-05 -1.40087e-05 0)
(2.10085e-05 -1.46559e-05 0)
(2.08209e-05 -1.53105e-05 0)
(2.38514e-05 -8.44796e-06 0)
(2.37041e-05 -9.24129e-06 0)
(2.35417e-05 -1.00204e-05 0)
(2.33667e-05 -1.07835e-05 0)
(2.31805e-05 -1.15282e-05 0)
(2.29856e-05 -1.22522e-05 0)
(2.27859e-05 -1.29558e-05 0)
(2.25867e-05 -1.36436e-05 0)
(2.23953e-05 -1.43256e-05 0)
(2.22195e-05 -1.5013e-05 0)
(2.51627e-05 -7.98278e-06 0)
(2.50154e-05 -8.77571e-06 0)
(2.48563e-05 -9.55701e-06 0)
(2.4688e-05 -1.03258e-05 0)
(2.45113e-05 -1.1081e-05 0)
(2.43278e-05 -1.18212e-05 0)
(2.41404e-05 -1.25462e-05 0)
(2.39535e-05 -1.32591e-05 0)
(2.37727e-05 -1.39681e-05 0)
(2.36044e-05 -1.46818e-05 0)
(2.64836e-05 -7.52293e-06 0)
(2.63367e-05 -8.31608e-06 0)
(2.61803e-05 -9.09983e-06 0)
(2.60172e-05 -9.8735e-06 0)
(2.58478e-05 -1.06368e-05 0)
(2.56732e-05 -1.13887e-05 0)
(2.54955e-05 -1.21293e-05 0)
(2.53179e-05 -1.28607e-05 0)
(2.51449e-05 -1.35899e-05 0)
(2.49819e-05 -1.43237e-05 0)
(2.7812e-05 -7.06627e-06 0)
(2.76654e-05 -7.86063e-06 0)
(2.75114e-05 -8.64717e-06 0)
(2.73524e-05 -9.42535e-06 0)
(2.71888e-05 -1.01952e-05 0)
(2.70212e-05 -1.09561e-05 0)
(2.6851e-05 -1.17081e-05 0)
(2.66806e-05 -1.2453e-05 0)
(2.65137e-05 -1.31969e-05 0)
(2.63547e-05 -1.39456e-05 0)
(2.91462e-05 -6.61058e-06 0)
(2.90002e-05 -7.40743e-06 0)
(2.88482e-05 -8.19743e-06 0)
(2.86926e-05 -8.98013e-06 0)
(2.85335e-05 -9.75577e-06 0)
(2.83714e-05 -1.05239e-05 0)
(2.82072e-05 -1.12845e-05 0)
(2.80424e-05 -1.20393e-05 0)
(2.78802e-05 -1.27939e-05 0)
(2.77243e-05 -1.3553e-05 0)
(3.0486e-05 -6.15351e-06 0)
(3.03404e-05 -6.95452e-06 0)
(3.01902e-05 -7.74899e-06 0)
(3.00374e-05 -8.53664e-06 0)
(2.9882e-05 -9.31782e-06 0)
(2.97242e-05 -1.00923e-05 0)
(2.95645e-05 -1.08599e-05 0)
(2.94042e-05 -1.16222e-05 0)
(2.92456e-05 -1.23844e-05 0)
(2.90919e-05 -1.31508e-05 0)
(3.18312e-05 -5.69279e-06 0)
(3.16862e-05 -6.49979e-06 0)
(3.15375e-05 -7.30009e-06 0)
(3.13868e-05 -8.09348e-06 0)
(3.12344e-05 -8.88054e-06 0)
(3.108e-05 -9.66097e-06 0)
(3.09239e-05 -1.04347e-05 0)
(3.07669e-05 -1.12031e-05 0)
(3.0611e-05 -1.1971e-05 0)
(3.04588e-05 -1.27424e-05 0)
(3.31825e-05 -5.22605e-06 0)
(3.30381e-05 -6.04116e-06 0)
(3.28905e-05 -6.84888e-06 0)
(3.27416e-05 -7.64919e-06 0)
(3.25915e-05 -8.44277e-06 0)
(3.24397e-05 -9.22946e-06 0)
(3.22863e-05 -1.00091e-05 0)
(3.21318e-05 -1.07828e-05 0)
(3.19778e-05 -1.15554e-05 0)
(3.18265e-05 -1.23305e-05 0)
(3.4541e-05 -4.75104e-06 0)
(3.4397e-05 -5.57643e-06 0)
(3.42503e-05 -6.39343e-06 0)
(3.41028e-05 -7.20209e-06 0)
(3.39543e-05 -8.00329e-06 0)
(3.38045e-05 -8.79688e-06 0)
(3.36531e-05 -9.58271e-06 0)
(3.35004e-05 -1.03618e-05 0)
(3.33476e-05 -1.11387e-05 0)
(3.31968e-05 -1.19167e-05 0)
(3.59081e-05 -4.26542e-06 0)
(3.57643e-05 -5.10347e-06 0)
(3.56183e-05 -5.93174e-06 0)
(3.54717e-05 -6.75043e-06 0)
(3.53245e-05 -7.56055e-06 0)
(3.5176e-05 -8.36211e-06 0)
(3.50259e-05 -9.15491e-06 0)
(3.48744e-05 -9.93977e-06 0)
(3.47223e-05 -1.07212e-05 0)
(3.45714e-05 -1.15023e-05 0)
(3.72853e-05 -3.76699e-06 0)
(3.71418e-05 -4.62006e-06 0)
(3.69961e-05 -5.46175e-06 0)
(3.68501e-05 -6.29232e-06 0)
(3.67036e-05 -7.11301e-06 0)
(3.65559e-05 -7.92383e-06 0)
(3.64066e-05 -8.72462e-06 0)
(3.62556e-05 -9.51621e-06 0)
(3.61037e-05 -1.03029e-05 0)
(3.59524e-05 -1.10875e-05 0)
(3.86747e-05 -3.25354e-06 0)
(3.85312e-05 -4.12412e-06 0)
(3.83857e-05 -4.98143e-06 0)
(3.82399e-05 -5.82587e-06 0)
(3.80936e-05 -6.65883e-06 0)
(3.79462e-05 -7.4805e-06 0)
(3.7797e-05 -8.29074e-06 0)
(3.76461e-05 -9.09019e-06 0)
(3.7494e-05 -9.88317e-06 0)
(3.73418e-05 -1.06724e-05 0)
(4.00784e-05 -2.72305e-06 0)
(3.99349e-05 -3.61352e-06 0)
(3.97891e-05 -4.48871e-06 0)
(3.96431e-05 -5.34909e-06 0)
(3.94966e-05 -6.19627e-06 0)
(3.9349e-05 -7.0305e-06 0)
(3.91996e-05 -7.85168e-06 0)
(3.90482e-05 -8.66057e-06 0)
(3.88954e-05 -9.46126e-06 0)
(3.87421e-05 -1.02563e-05 0)
(4.14988e-05 -2.17354e-06 0)
(4.13549e-05 -3.08631e-06 0)
(4.12086e-05 -3.98162e-06 0)
(4.1062e-05 -4.86007e-06 0)
(4.09149e-05 -5.72339e-06 0)
(4.07666e-05 -6.57205e-06 0)
(4.06164e-05 -7.40601e-06 0)
(4.04642e-05 -8.22591e-06 0)
(4.03103e-05 -9.03593e-06 0)
(4.01556e-05 -9.83858e-06 0)
(4.29382e-05 -1.60334e-06 0)
(4.27938e-05 -2.5406e-06 0)
(4.26465e-05 -3.45821e-06 0)
(4.24989e-05 -4.35682e-06 0)
(4.23507e-05 -5.23839e-06 0)
(4.22013e-05 -6.10338e-06 0)
(4.205e-05 -6.95187e-06 0)
(4.18964e-05 -7.78469e-06 0)
(4.1741e-05 -8.60587e-06 0)
(4.15847e-05 -9.4179e-06 0)
(4.43993e-05 -1.011e-06 0)
(4.42539e-05 -1.97473e-06 0)
(4.41053e-05 -2.91664e-06 0)
(4.39562e-05 -3.83749e-06 0)
(4.38064e-05 -4.73928e-06 0)
(4.36554e-05 -5.62266e-06 0)
(4.35025e-05 -6.48772e-06 0)
(4.33473e-05 -7.33521e-06 0)
(4.319e-05 -8.16943e-06 0)
(4.30317e-05 -8.9929e-06 0)
(4.58844e-05 -3.95618e-07 0)
(4.57378e-05 -1.38727e-06 0)
(4.55873e-05 -2.35517e-06 0)
(4.5436e-05 -3.30013e-06 0)
(4.52841e-05 -4.22427e-06 0)
(4.51311e-05 -5.12807e-06 0)
(4.49762e-05 -6.01161e-06 0)
(4.48189e-05 -6.87584e-06 0)
(4.46596e-05 -7.72505e-06 0)
(4.44992e-05 -8.56194e-06 0)
(4.73961e-05 2.43119e-07 0)
(4.72478e-05 -7.77273e-07 0)
(4.70948e-05 -1.77227e-06 0)
(4.69406e-05 -2.7429e-06 0)
(4.67859e-05 -3.69125e-06 0)
(4.66302e-05 -4.61768e-06 0)
(4.64729e-05 -5.52197e-06 0)
(4.63134e-05 -6.40486e-06 0)
(4.61518e-05 -7.27097e-06 0)
(4.59891e-05 -8.12334e-06 0)
(4.8936e-05 9.04463e-07 0)
(4.87858e-05 -1.44384e-07 0)
(4.86298e-05 -1.16671e-06 0)
(4.8472e-05 -2.1639e-06 0)
(4.83135e-05 -3.13818e-06 0)
(4.81545e-05 -4.0894e-06 0)
(4.79944e-05 -5.01675e-06 0)
(4.78323e-05 -5.92069e-06 0)
(4.76683e-05 -6.80573e-06 0)
(4.75033e-05 -7.67537e-06 0)
(5.05049e-05 1.58648e-06 0)
(5.03528e-05 5.10624e-07 0)
(5.01937e-05 -5.38034e-07 0)
(5.00319e-05 -1.5616e-06 0)
(4.98689e-05 -2.56262e-06 0)
(4.97056e-05 -3.54069e-06 0)
(4.95418e-05 -4.49393e-06 0)
(4.93769e-05 -5.42153e-06 0)
(4.92105e-05 -6.32775e-06 0)
(4.9043e-05 -7.21656e-06 0)
(5.21016e-05 2.28585e-06 0)
(5.19485e-05 1.18548e-06 0)
(5.17873e-05 1.12869e-07 0)
(5.16216e-05 -9.35156e-07 0)
(5.14536e-05 -1.9624e-06 0)
(5.12849e-05 -2.96851e-06 0)
(5.11165e-05 -3.95041e-06 0)
(5.0948e-05 -4.90533e-06 0)
(5.0779e-05 -5.83573e-06 0)
(5.06092e-05 -6.74571e-06 0)
(5.37229e-05 2.99875e-06 0)
(5.35707e-05 1.8762e-06 0)
(5.34098e-05 7.829e-07 0)
(5.32421e-05 -2.85696e-07 0)
(5.30695e-05 -1.33591e-06 0)
(5.28947e-05 -2.36926e-06 0)
(5.27201e-05 -3.38228e-06 0)
(5.2547e-05 -4.36888e-06 0)
(5.2375e-05 -5.32795e-06 0)
(5.2203e-05 -6.26185e-06 0)
(5.53643e-05 3.72289e-06 0)
(5.52163e-05 2.5778e-06 0)
(5.50597e-05 1.46653e-06 0)
(5.48937e-05 3.82739e-07 0)
(5.47189e-05 -6.83999e-07 0)
(5.45385e-05 -1.73971e-06 0)
(5.43567e-05 -2.7833e-06 0)
(5.41771e-05 -3.80668e-06 0)
(5.40011e-05 -4.80152e-06 0)
(5.3827e-05 -5.76387e-06 0)
(5.70216e-05 4.46093e-06 0)
(5.6882e-05 3.28647e-06 0)
(5.6735e-05 2.15658e-06 0)
(5.65756e-05 1.06232e-06 0)
(5.6403e-05 -1.15371e-08 0)
(5.62202e-05 -1.0792e-06 0)
(5.60321e-05 -2.14635e-06 0)
(5.58445e-05 -3.20887e-06 0)
(5.56624e-05 -4.25035e-06 0)
(5.54849e-05 -5.252e-06 0)
(5.8694e-05 5.2236e-06 0)
(5.85656e-05 4.00255e-06 0)
(5.84311e-05 2.84606e-06 0)
(5.82814e-05 1.74324e-06 0)
(5.81156e-05 6.69737e-07 0)
(5.7936e-05 -3.943e-07 0)
(5.77467e-05 -1.46873e-06 0)
(5.75539e-05 -2.56074e-06 0)
(5.73647e-05 -3.6625e-06 0)
(5.71793e-05 -4.72801e-06 0)
(6.03957e-05 6.04284e-06 0)
(6.02694e-05 4.73402e-06 0)
(6.01392e-05 3.53478e-06 0)
(5.99958e-05 2.41565e-06 0)
(5.98384e-05 1.34541e-06 0)
(5.96681e-05 2.95297e-07 0)
(5.9487e-05 -7.61588e-07 0)
(5.92995e-05 -1.85411e-06 0)
(5.9112e-05 -3.00814e-06 0)
(5.89284e-05 -4.19174e-06 0)
(5.16476e-05 -5.44572e-06 0)
(5.14154e-05 -4.0985e-06 0)
(5.1159e-05 -3.05833e-06 0)
(5.08714e-05 -2.20801e-06 0)
(5.0542e-05 -1.47581e-06 0)
(5.01578e-05 -8.11e-07 0)
(4.97025e-05 -1.7455e-07 0)
(4.9154e-05 4.63069e-07 0)
(4.84819e-05 1.10313e-06 0)
(4.76603e-05 1.64168e-06 0)
(4.97382e-05 -4.70832e-06 0)
(4.95349e-05 -3.58955e-06 0)
(4.93193e-05 -2.69383e-06 0)
(4.90656e-05 -1.95173e-06 0)
(4.87599e-05 -1.30839e-06 0)
(4.83899e-05 -7.22445e-07 0)
(4.79442e-05 -1.66395e-07 0)
(4.74128e-05 3.65568e-07 0)
(4.6793e-05 8.33594e-07 0)
(4.60991e-05 1.13447e-06 0)
(4.82972e-05 -3.84221e-06 0)
(4.80853e-05 -2.99163e-06 0)
(4.78819e-05 -2.27915e-06 0)
(4.76536e-05 -1.67155e-06 0)
(4.73815e-05 -1.13589e-06 0)
(4.70551e-05 -6.45302e-07 0)
(4.66704e-05 -1.85355e-07 0)
(4.623e-05 2.36818e-07 0)
(4.57432e-05 5.82559e-07 0)
(4.52191e-05 7.95957e-07 0)
(4.72944e-05 -2.90189e-06 0)
(4.70721e-05 -2.32881e-06 0)
(4.68711e-05 -1.8248e-06 0)
(4.66599e-05 -1.37731e-06 0)
(4.64189e-05 -9.71631e-07 0)
(4.61387e-05 -5.95433e-07 0)
(4.58181e-05 -2.44497e-07 0)
(4.54613e-05 7.16733e-08 0)
(4.50725e-05 3.29129e-07 0)
(4.46484e-05 5.06145e-07 0)
(4.67079e-05 -1.92761e-06 0)
(4.64818e-05 -1.63234e-06 0)
(4.62824e-05 -1.34898e-06 0)
(4.60815e-05 -1.07775e-06 0)
(4.58604e-05 -8.17617e-07 0)
(4.561e-05 -5.6801e-07 0)
(4.53289e-05 -3.30957e-07 0)
(4.50192e-05 -1.12632e-07 0)
(4.46799e-05 7.78802e-08 0)
(4.43009e-05 2.34097e-07 0)
(4.65246e-05 -9.51396e-07 0)
(4.63016e-05 -9.31641e-07 0)
(4.61054e-05 -8.70971e-07 0)
(4.59081e-05 -7.80159e-07 0)
(4.56911e-05 -6.69929e-07 0)
(4.54456e-05 -5.49714e-07 0)
(4.51702e-05 -4.26069e-07 0)
(4.48665e-05 -3.00711e-07 0)
(4.45333e-05 -1.70065e-07 0)
(4.41613e-05 -2.93029e-08 0)
(4.67395e-05 -2.01217e-09 0)
(4.65262e-05 -2.54041e-07 0)
(4.63342e-05 -4.09246e-07 0)
(4.61333e-05 -4.90873e-07 0)
(4.59047e-05 -5.22732e-07 0)
(4.56392e-05 -5.25599e-07 0)
(4.53356e-05 -5.11838e-07 0)
(4.49976e-05 -4.802e-07 0)
(4.46292e-05 -4.13169e-07 0)
(4.42264e-05 -2.92198e-07 0)
(4.73562e-05 8.90527e-07 0)
(4.71584e-05 3.72921e-07 0)
(4.69691e-05 1.83921e-08 0)
(4.67569e-05 -2.16164e-07 0)
(4.65041e-05 -3.71601e-07 0)
(4.62013e-05 -4.82457e-07 0)
(4.5845e-05 -5.70513e-07 0)
(4.54376e-05 -6.36916e-07 0)
(4.49884e-05 -6.50866e-07 0)
(4.45059e-05 -5.64069e-07 0)
(4.83862e-05 1.68645e-06 0)
(4.82016e-05 9.20163e-07 0)
(4.8004e-05 3.95202e-07 0)
(4.77708e-05 3.70061e-08 0)
(4.74892e-05 -2.17546e-07 0)
(4.71492e-05 -4.14693e-07 0)
(4.67402e-05 -5.8992e-07 0)
(4.62549e-05 -7.54815e-07 0)
(4.56925e-05 -8.80087e-07 0)
(4.50639e-05 -8.71153e-07 0)
(4.98484e-05 2.3379e-06 0)
(4.96387e-05 1.36525e-06 0)
(4.94036e-05 7.13383e-07 0)
(4.91382e-05 2.60189e-07 0)
(4.88345e-05 -7.04511e-08 0)
(4.84806e-05 -3.35615e-07 0)
(4.80628e-05 -5.79344e-07 0)
(4.75619e-05 -8.37163e-07 0)
(4.69517e-05 -1.11471e-06 0)
(4.62122e-05 -1.31955e-06 0)
(4.40618e-05 9.55999e-07 0)
(3.971e-05 -1.01017e-07 0)
(3.573e-05 -4.14901e-07 0)
(3.17687e-05 -5.01669e-07 0)
(2.78042e-05 -5.89415e-07 0)
(2.38664e-05 -7.1484e-07 0)
(1.99499e-05 -8.59397e-07 0)
(1.60723e-05 -9.73161e-07 0)
(1.22161e-05 -9.38398e-07 0)
(8.23291e-06 -5.52224e-07 0)
(4.39245e-05 1.02778e-06 0)
(3.98012e-05 1.73596e-07 0)
(3.57741e-05 -1.23197e-07 0)
(3.17898e-05 -2.11027e-07 0)
(2.78256e-05 -3.0191e-07 0)
(2.38913e-05 -4.29607e-07 0)
(1.99716e-05 -5.75495e-07 0)
(1.60747e-05 -6.9144e-07 0)
(1.21857e-05 -6.64972e-07 0)
(8.27922e-06 -3.45762e-07 0)
(4.36067e-05 9.34283e-07 0)
(3.98189e-05 3.99284e-07 0)
(3.58057e-05 1.67415e-07 0)
(3.18085e-05 8.22886e-08 0)
(2.7845e-05 -1.37935e-08 0)
(2.39134e-05 -1.44245e-07 0)
(1.99902e-05 -2.90571e-07 0)
(1.60778e-05 -4.10202e-07 0)
(1.21796e-05 -4.10882e-07 0)
(8.38787e-06 -2.04804e-07 0)
(4.32939e-05 7.72887e-07 0)
(3.97861e-05 5.79134e-07 0)
(3.58191e-05 4.53574e-07 0)
(3.18223e-05 3.78123e-07 0)
(2.78626e-05 2.75678e-07 0)
(2.39343e-05 1.42092e-07 0)
(2.00088e-05 -4.06231e-09 0)
(1.60854e-05 -1.30062e-07 0)
(1.21891e-05 -1.7384e-07 0)
(8.48611e-06 -8.78882e-08 0)
(4.30655e-05 5.85692e-07 0)
(3.97295e-05 7.28344e-07 0)
(3.58135e-05 7.33618e-07 0)
(3.18298e-05 6.74099e-07 0)
(2.78787e-05 5.65139e-07 0)
(2.39546e-05 4.28383e-07 0)
(2.00286e-05 2.82773e-07 0)
(1.60986e-05 1.48165e-07 0)
(1.22044e-05 5.15906e-08 0)
(8.54575e-06 2.00193e-08 0)
(4.29471e-05 3.90946e-07 0)
(3.96628e-05 8.65301e-07 0)
(3.57889e-05 1.01011e-06 0)
(3.18307e-05 9.69644e-07 0)
(2.78938e-05 8.54631e-07 0)
(2.39755e-05 7.14988e-07 0)
(2.00511e-05 5.70271e-07 0)
(1.61188e-05 4.26282e-07 0)
(1.22208e-05 2.73422e-07 0)
(8.55841e-06 1.25112e-07 0)
(4.29396e-05 2.07129e-07 0)
(3.95904e-05 1.00893e-06 0)
(3.57482e-05 1.28505e-06 0)
(3.18264e-05 1.26265e-06 0)
(2.79086e-05 1.14263e-06 0)
(2.39972e-05 1.00077e-06 0)
(2.00764e-05 8.57241e-07 0)
(1.6146e-05 7.04965e-07 0)
(1.22381e-05 4.98548e-07 0)
(8.52361e-06 2.30681e-07 0)
(4.30137e-05 5.18867e-08 0)
(3.9499e-05 1.17733e-06 0)
(3.56931e-05 1.56106e-06 0)
(3.18196e-05 1.55257e-06 0)
(2.79247e-05 1.42919e-06 0)
(2.40208e-05 1.28611e-06 0)
(2.01049e-05 1.14399e-06 0)
(1.61811e-05 9.86049e-07 0)
(1.22632e-05 7.35327e-07 0)
(8.44917e-06 3.42685e-07 0)
(4.30954e-05 -3.87691e-08 0)
(3.93706e-05 1.38393e-06 0)
(3.56294e-05 1.83733e-06 0)
(3.18146e-05 1.83796e-06 0)
(2.79437e-05 1.7137e-06 0)
(2.40464e-05 1.57059e-06 0)
(2.01358e-05 1.42981e-06 0)
(1.62234e-05 1.26926e-06 0)
(1.23064e-05 9.90124e-07 0)
(8.36144e-06 4.75604e-07 0)
(4.30126e-05 2.293e-08 0)
(3.9188e-05 1.63106e-06 0)
(3.55669e-05 2.11019e-06 0)
(3.18172e-05 2.11806e-06 0)
(2.79672e-05 1.99621e-06 0)
(2.40741e-05 1.85426e-06 0)
(2.01675e-05 1.71428e-06 0)
(1.62704e-05 1.55296e-06 0)
(1.23786e-05 1.26534e-06 0)
(8.3337e-06 6.73232e-07 0)
(1.19482e-05 -1.14154e-05 0)
(1.18963e-05 -1.18244e-05 0)
(1.18567e-05 -1.23533e-05 0)
(1.18449e-05 -1.2921e-05 0)
(1.18625e-05 -1.34785e-05 0)
(1.19063e-05 -1.39934e-05 0)
(1.19708e-05 -1.44405e-05 0)
(1.20488e-05 -1.47995e-05 0)
(1.21313e-05 -1.50537e-05 0)
(1.22072e-05 -1.51912e-05 0)
(1.22666e-05 -1.13678e-05 0)
(1.22578e-05 -1.1817e-05 0)
(1.22507e-05 -1.2354e-05 0)
(1.22463e-05 -1.2926e-05 0)
(1.22484e-05 -1.34883e-05 0)
(1.2258e-05 -1.40079e-05 0)
(1.22735e-05 -1.44589e-05 0)
(1.22912e-05 -1.48198e-05 0)
(1.23052e-05 -1.50735e-05 0)
(1.23078e-05 -1.52072e-05 0)
(1.26638e-05 -1.12975e-05 0)
(1.26526e-05 -1.1797e-05 0)
(1.26482e-05 -1.23541e-05 0)
(1.26397e-05 -1.29338e-05 0)
(1.26248e-05 -1.35005e-05 0)
(1.26039e-05 -1.4024e-05 0)
(1.25773e-05 -1.44785e-05 0)
(1.25442e-05 -1.4842e-05 0)
(1.25018e-05 -1.50957e-05 0)
(1.24447e-05 -1.52255e-05 0)
(1.31158e-05 -1.12073e-05 0)
(1.30948e-05 -1.17599e-05 0)
(1.30806e-05 -1.2347e-05 0)
(1.30588e-05 -1.29408e-05 0)
(1.30222e-05 -1.35145e-05 0)
(1.29695e-05 -1.4043e-05 0)
(1.29022e-05 -1.45027e-05 0)
(1.28218e-05 -1.48709e-05 0)
(1.27281e-05 -1.51264e-05 0)
(1.26172e-05 -1.52525e-05 0)
(1.36242e-05 -1.11003e-05 0)
(1.35952e-05 -1.17105e-05 0)
(1.35687e-05 -1.23329e-05 0)
(1.35283e-05 -1.2945e-05 0)
(1.3465e-05 -1.35281e-05 0)
(1.33767e-05 -1.40635e-05 0)
(1.32658e-05 -1.45312e-05 0)
(1.31364e-05 -1.4908e-05 0)
(1.29909e-05 -1.5169e-05 0)
(1.28268e-05 -1.52921e-05 0)
(1.42028e-05 -1.09811e-05 0)
(1.41686e-05 -1.16554e-05 0)
(1.41298e-05 -1.23152e-05 0)
(1.40677e-05 -1.29462e-05 0)
(1.39733e-05 -1.3539e-05 0)
(1.38447e-05 -1.40826e-05 0)
(1.36852e-05 -1.45613e-05 0)
(1.35011e-05 -1.4952e-05 0)
(1.32983e-05 -1.52245e-05 0)
(1.30766e-05 -1.53468e-05 0)
(1.48676e-05 -1.08592e-05 0)
(1.48317e-05 -1.16033e-05 0)
(1.478e-05 -1.22981e-05 0)
(1.46931e-05 -1.29447e-05 0)
(1.45639e-05 -1.35451e-05 0)
(1.43915e-05 -1.40965e-05 0)
(1.41787e-05 -1.45882e-05 0)
(1.39321e-05 -1.4999e-05 0)
(1.3661e-05 -1.52921e-05 0)
(1.33708e-05 -1.54187e-05 0)
(1.56405e-05 -1.07484e-05 0)
(1.5603e-05 -1.15625e-05 0)
(1.55331e-05 -1.22846e-05 0)
(1.54165e-05 -1.29398e-05 0)
(1.52507e-05 -1.35447e-05 0)
(1.5035e-05 -1.41017e-05 0)
(1.47688e-05 -1.46068e-05 0)
(1.44547e-05 -1.50418e-05 0)
(1.41004e-05 -1.5368e-05 0)
(1.37182e-05 -1.55101e-05 0)
(1.6547e-05 -1.06669e-05 0)
(1.6498e-05 -1.15392e-05 0)
(1.63967e-05 -1.22723e-05 0)
(1.62449e-05 -1.29307e-05 0)
(1.60441e-05 -1.35371e-05 0)
(1.57916e-05 -1.40989e-05 0)
(1.54819e-05 -1.46138e-05 0)
(1.5108e-05 -1.50728e-05 0)
(1.4664e-05 -1.54422e-05 0)
(1.4147e-05 -1.56225e-05 0)
(1.76059e-05 -1.06483e-05 0)
(1.75132e-05 -1.15251e-05 0)
(1.73639e-05 -1.22541e-05 0)
(1.71751e-05 -1.29144e-05 0)
(1.69452e-05 -1.35248e-05 0)
(1.66685e-05 -1.40912e-05 0)
(1.63363e-05 -1.46139e-05 0)
(1.59345e-05 -1.50894e-05 0)
(1.54364e-05 -1.54977e-05 0)
(1.4773e-05 -1.57346e-05 0)
(2.59474e-06 -2.88124e-06 0)
(2.96176e-06 -2.98933e-06 0)
(3.30363e-06 -3.09321e-06 0)
(3.6207e-06 -3.1961e-06 0)
(3.92157e-06 -3.29957e-06 0)
(4.21135e-06 -3.40351e-06 0)
(4.49547e-06 -3.5081e-06 0)
(4.77738e-06 -3.61297e-06 0)
(5.06465e-06 -3.71766e-06 0)
(5.36635e-06 -3.82206e-06 0)
(2.90447e-06 -3.33054e-06 0)
(3.25022e-06 -3.4276e-06 0)
(3.58644e-06 -3.52179e-06 0)
(3.90786e-06 -3.61605e-06 0)
(4.21671e-06 -3.71205e-06 0)
(4.51617e-06 -3.81012e-06 0)
(4.80984e-06 -3.91007e-06 0)
(5.10128e-06 -4.01127e-06 0)
(5.39729e-06 -4.11331e-06 0)
(5.7072e-06 -4.21582e-06 0)
(3.20926e-06 -3.76009e-06 0)
(3.54406e-06 -3.8549e-06 0)
(3.87496e-06 -3.94723e-06 0)
(4.19791e-06 -4.03869e-06 0)
(4.5125e-06 -4.13119e-06 0)
(4.81982e-06 -4.22565e-06 0)
(5.12184e-06 -4.32225e-06 0)
(5.42156e-06 -4.42072e-06 0)
(5.72521e-06 -4.52052e-06 0)
(6.04183e-06 -4.62112e-06 0)
(3.51088e-06 -4.18393e-06 0)
(3.84125e-06 -4.2781e-06 0)
(4.16871e-06 -4.37069e-06 0)
(4.49199e-06 -4.46215e-06 0)
(4.81031e-06 -4.55378e-06 0)
(5.12354e-06 -4.64677e-06 0)
(5.43238e-06 -4.74159e-06 0)
(5.73897e-06 -4.83811e-06 0)
(6.04897e-06 -4.93614e-06 0)
(6.37083e-06 -5.03518e-06 0)
(3.81097e-06 -4.60791e-06 0)
(4.14028e-06 -4.70164e-06 0)
(4.46621e-06 -4.79471e-06 0)
(4.78971e-06 -4.88689e-06 0)
(5.11053e-06 -4.97892e-06 0)
(5.42804e-06 -5.07164e-06 0)
(5.74212e-06 -5.16562e-06 0)
(6.05418e-06 -5.2611e-06 0)
(6.36923e-06 -5.35786e-06 0)
(6.69508e-06 -5.45553e-06 0)
(4.11069e-06 -5.03393e-06 0)
(4.44047e-06 -5.12745e-06 0)
(4.76621e-06 -5.22084e-06 0)
(5.09022e-06 -5.31373e-06 0)
(5.41287e-06 -5.4064e-06 0)
(5.73346e-06 -5.49942e-06 0)
(6.05144e-06 -5.59324e-06 0)
(6.36766e-06 -5.68801e-06 0)
(6.68662e-06 -5.78385e-06 0)
(7.01555e-06 -5.88057e-06 0)
(4.41071e-06 -5.46255e-06 0)
(4.74169e-06 -5.556e-06 0)
(5.06799e-06 -5.64969e-06 0)
(5.39276e-06 -5.74316e-06 0)
(5.71683e-06 -5.83647e-06 0)
(6.03964e-06 -5.92985e-06 0)
(6.36043e-06 -6.02361e-06 0)
(6.67972e-06 -6.11808e-06 0)
(7.00166e-06 -6.21326e-06 0)
(7.33305e-06 -6.30913e-06 0)
(4.71148e-06 -5.89391e-06 0)
(5.04397e-06 -5.98748e-06 0)
(5.37119e-06 -6.08146e-06 0)
(5.69677e-06 -6.17542e-06 0)
(6.02193e-06 -6.26919e-06 0)
(6.34628e-06 -6.36291e-06 0)
(6.669e-06 -6.45675e-06 0)
(6.9905e-06 -6.55084e-06 0)
(7.31471e-06 -6.64545e-06 0)
(7.64819e-06 -6.74074e-06 0)
(5.0133e-06 -6.32803e-06 0)
(5.34746e-06 -6.42185e-06 0)
(5.67568e-06 -6.51622e-06 0)
(6.00197e-06 -6.61061e-06 0)
(6.32785e-06 -6.70481e-06 0)
(6.65311e-06 -6.79872e-06 0)
(6.97704e-06 -6.89246e-06 0)
(7.30001e-06 -6.98631e-06 0)
(7.62595e-06 -7.08041e-06 0)
(7.96135e-06 -7.17507e-06 0)
(5.3165e-06 -6.76493e-06 0)
(5.65236e-06 -6.85916e-06 0)
(5.9815e-06 -6.95398e-06 0)
(6.30824e-06 -7.04884e-06 0)
(6.63437e-06 -7.14335e-06 0)
(6.95993e-06 -7.23742e-06 0)
(7.28437e-06 -7.3311e-06 0)
(7.60819e-06 -7.42449e-06 0)
(7.93541e-06 -7.51802e-06 0)
(8.27263e-06 -7.61217e-06 0)
(5.62146e-06 -7.2046e-06 0)
(5.95898e-06 -7.29938e-06 0)
(6.2888e-06 -7.3948e-06 0)
(6.61556e-06 -7.49017e-06 0)
(6.94139e-06 -7.58504e-06 0)
(7.26657e-06 -7.67918e-06 0)
(7.59082e-06 -7.7726e-06 0)
(7.91486e-06 -7.86561e-06 0)
(8.24295e-06 -7.95853e-06 0)
(8.5819e-06 -8.05198e-06 0)
(5.92866e-06 -7.647e-06 0)
(6.26771e-06 -7.74254e-06 0)
(6.59784e-06 -7.8387e-06 0)
(6.92408e-06 -7.93468e-06 0)
(7.24889e-06 -8.0299e-06 0)
(7.57291e-06 -8.12412e-06 0)
(7.89618e-06 -8.21733e-06 0)
(8.21978e-06 -8.30972e-06 0)
(8.54826e-06 -8.40188e-06 0)
(8.8888e-06 -8.49462e-06 0)
(6.23872e-06 -8.09203e-06 0)