/*--------------------------------*- C++ -*----------------------------------*\
| =========                 |                                                 |
| \\      /  F ield         | OpenFOAM: The Open Source CFD Toolbox           |
|  \\    /   O peration     | Version:  2106                                  |
|   \\  /    A nd           | Website:  www.openfoam.com                      |
|    \\/     M anipulation  |                                                 |
\*---------------------------------------------------------------------------*/
FoamFile
{
    version     2.0;
    format      ascii;
    arch        "LSB;label=32;scalar=64";
    class       volSymmTensorField;
    location    "20";
    object      sigma;
}
// * * * * * * * * * * * * * * * * * * * * * * * * * * * * * * * * * * * * * //

dimensions      [1 -1 -2 0 0 0 0];

internalField   nonuniform List<symmTensor> 
3500
(
(-935186 280263 3.4189e-11 -788248 2.82095e-11 -397715)
(-980235 254673 3.76577e-12 -1.01722e+06 9.17747e-11 -460951)
(-1.0084e+06 222910 -4.17825e-11 -1.32907e+06 5.09051e-11 -539416)
(-1.01804e+06 197439 -9.35422e-13 -1.58367e+06 -2.65638e-11 -600394)
(-1.02118e+06 174588 2.39856e-11 -1.8017e+06 -2.15915e-11 -651434)
(-1.02343e+06 152274 -1.00937e-11 -1.99248e+06 3.41359e-11 -695978)
(-1.02513e+06 128654 -5.30499e-13 -2.15911e+06 -1.94275e-11 -734827)
(-1.02692e+06 104195 7.97515e-12 -2.30194e+06 -1.43948e-11 -768200)
(-1.02849e+06 78266.7 -6.46903e-12 -2.42116e+06 1.52522e-11 -796073)
(-1.0297e+06 51854.8 4.89979e-12 -2.51671e+06 -1.59394e-11 -818402)
(-1.03082e+06 24412.1 3.95375e-12 -2.589e+06 7.07125e-12 -835343)
(-1.03121e+06 -3076.54 -1.43302e-12 -2.63814e+06 2.15227e-11 -846774)
(-1.03175e+06 -31197.4 5.66631e-14 -2.66445e+06 1.70016e-11 -852970)
(-1.03123e+06 -59030.2 1.57248e-12 -2.66781e+06 1.86927e-11 -853624)
(-1.03108e+06 -87139.4 0 -2.64806e+06 0 -849030)
(-1.02957e+06 -114678 -1.01991e-11 -2.60458e+06 -3.3148e-11 -838651)
(-1.02867e+06 -142121 5.56874e-13 -2.53656e+06 -2.23045e-11 -822745)
(-1.02616e+06 -168710 7.98188e-12 -2.44283e+06 2.96107e-11 -800535)
(-1.02443e+06 -194749 1.07259e-19 -2.32181e+06 1.58144e-19 -772208)
(-1.02091e+06 -219554 -5.55814e-13 -2.17181e+06 1.99405e-11 -736781)
(-1.01835e+06 -243129 -2.46498e-11 -1.99065e+06 -4.69049e-11 -694384)
(-1.01394e+06 -264780 8.52915e-13 -1.77667e+06 -2.49921e-11 -643987)
(-1.01073e+06 -284006 -1.96243e-19 -1.52818e+06 1.71789e-20 -585901)
(-1.006e+06 -299989 3.7454e-12 -1.24569e+06 -8.69574e-11 -519620)
(-1.00316e+06 -311685 1.65618e-11 -931042 4.549e-12 -446354)
(-999896 -318757 3.57773e-11 -589588 -2.7353e-11 -366804)
(-998619 -321201 3.45302e-11 -224915 -1.07818e-12 -282354)
(-993279 -323035 -3.70272e-11 159720 3.93996e-11 -192360)
(-970202 -328588 -1.74212e-11 586254 6.33383e-12 -88603.3)
(-897337 -343172 8.94687e-12 1.02719e+06 -6.85396e-11 29966.6)
(-740139 623029 -4.13942e-11 -746803 3.78854e-12 -343140)
(-835945 568901 1.08434e-11 -848874 7.59651e-11 -388804)
(-895660 504943 4.49862e-11 -1.04647e+06 4.30879e-11 -448183)
(-916224 446010 2.82245e-11 -1.24117e+06 -5.28245e-11 -497861)
(-918527 392401 -3.06656e-12 -1.41786e+06 -2.12025e-11 -539167)
(-916306 342356 2.76254e-12 -1.57344e+06 1.92365e-11 -574556)
(-912532 292206 2.53146e-11 -1.70773e+06 -1.03527e-11 -604677)
(-909618 242433 0 -1.8218e+06 0 -630328)
(-907385 191494 -1.57453e-11 -1.91629e+06 2.41154e-11 -651616)
(-905635 141054 -2.95469e-11 -1.99165e+06 1.52161e-11 -668604)
(-904924 89768.4 3.61106e-12 -2.04852e+06 1.37998e-11 -681564)
(-903829 39227.4 1.09818e-11 -2.08683e+06 -2.62168e-11 -690151)
(-904131 -12092.4 4.60978e-12 -2.10723e+06 -1.07494e-11 -694928)
(-903295 -62810.3 1.37816e-12 -2.10905e+06 1.48906e-11 -695157)
(-904308 -114483 5.62815e-12 -2.09289e+06 1.76282e-11 -691662)
(-903587 -165926 0 -2.05743e+06 0 -683311)
(-905238 -218579 -1.20043e-11 -2.00306e+06 -3.26303e-11 -671145)
(-904763 -271465 -2.19107e-11 -1.9278e+06 7.76109e-13 -653668)
(-907277 -325730 -2.22441e-12 -1.83181e+06 1.52687e-11 -632097)
(-907648 -380543 3.00792e-11 -1.71256e+06 -7.24688e-12 -604664)
(-911880 -436384 -2.86688e-19 -1.57007e+06 -1.25704e-19 -572757)
(-914602 -492149 -3.44904e-11 -1.40161e+06 -8.13814e-12 -534512)
(-922621 -546831 7.48704e-11 -1.20751e+06 1.34388e-11 -491569)
(-930760 -598367 1.1847e-11 -985583 -7.42129e-11 -442233)
(-946074 -643990 -3.29517e-11 -737078 -5.47409e-11 -388420)
(-962403 -682337 8.17352e-11 -460874 2.88598e-11 -328448)
(-981121 -713205 -1.16072e-11 -159261 5.33406e-11 -263165)
(-981895 -742866 -1.02487e-10 167032 5.98616e-11 -188045)
(-933640 -771928 8.9608e-11 498960 -1.12488e-11 -100311)
(-775005 -787154 3.3013e-11 796693 -2.94737e-11 5004.96)
(-681416 785315 -8.46999e-11 -674829 -1.57043e-11 -312980)
(-744281 747925 -8.59661e-11 -731366 -3.68995e-11 -340534)
(-798131 687934 6.87761e-11 -850513 -5.16312e-11 -380456)
(-820274 619846 1.02436e-10 -978654 -3.61945e-11 -415137)
(-823612 549962 -2.92512e-11 -1.10341e+06 2.51226e-11 -444697)
(-819757 480432 -6.1002e-11 -1.2168e+06 -3.26658e-12 -469976)
(-814068 410888 2.8211e-11 -1.31555e+06 7.67417e-12 -491450)
(-809155 341774 -6.70962e-19 -1.3991e+06 2.55797e-19 -509598)
(-805491 272698 2.27049e-12 -1.46783e+06 1.10995e-11 -524612)
(-802917 204294 -3.70826e-19 -1.52227e+06 2.45694e-19 -536581)
(-801459 136079 -1.21167e-19 -1.56302e+06 7.84854e-20 -545649)
(-800391 68480.6 -7.56431e-12 -1.59032e+06 6.07138e-12 -551701)
(-800200 788.465 1.98257e-12 -1.60453e+06 1.06501e-12 -554938)
(-799881 -66781.3 -6.15383e-12 -1.60548e+06 -1.97169e-11 -555084)
(-800418 -135048 7.40264e-12 -1.59335e+06 9.7697e-12 -552408)
(-800537 -203933 1.16961e-11 -1.56756e+06 9.58322e-12 -546483)
(-801679 -274254 -1.59279e-11 -1.52807e+06 -9.2957e-12 -537635)
(-802386 -346031 -3.78921e-11 -1.47394e+06 -2.94949e-11 -525307)
(-804605 -419960 4.81527e-11 -1.4049e+06 1.68003e-11 -509887)
(-806925 -496001 3.04759e-11 -1.31961e+06 -8.24883e-12 -490739)
(-811977 -574352 -9.46557e-11 -1.2175e+06 -2.10936e-11 -468342)
(-818835 -654361 3.04562e-12 -1.09678e+06 -1.94944e-11 -442065)
(-831097 -734818 1.17228e-10 -956451 -5.48899e-12 -412511)
(-848561 -813465 7.35416e-11 -794231 5.13666e-11 -379106)
(-874829 -887047 -1.28046e-10 -608978 -7.50539e-12 -342417)
(-907196 -952351 -9.33323e-11 -399580 2.08479e-11 -301564)
(-940769 -1.00633e+06 3.95751e-11 -168706 2.17637e-11 -256033)
(-956812 -1.04763e+06 -4.47836e-26 73412.8 4.39937e-26 -203861)
(-924585 -1.07041e+06 8.93084e-11 311790 -8.50703e-12 -141414)
(-816338 -1.05599e+06 5.35467e-12 516722 3.73715e-11 -69142.2)
(-654577 877612 4.21084e-11 -577019 2.71437e-11 -284214)
(-675421 852871 3.3379e-11 -609786 -4.34103e-11 -296586)
(-703230 802018 2.45511e-19 -678574 -1.80866e-20 -318878)
(-713699 733969 -7.07604e-11 -753503 7.78837e-12 -338585)
(-712141 656422 5.7647e-12 -828659 3.48326e-11 -355569)
(-705570 574714 -3.45054e-19 -898219 5.50979e-20 -370105)
(-698338 491726 -2.55349e-12 -958938 -1.42908e-11 -382448)
(-692435 409036 2.4217e-12 -1.00991e+06 1.2404e-11 -392850)
(-688256 327187 -2.04671e-11 -1.05134e+06 -4.24198e-12 -401445)
(-685530 246449 -1.63099e-11 -1.08377e+06 -1.79344e-12 -408299)
(-683960 166628 7.68814e-12 -1.10773e+06 -1.2327e-11 -413467)
(-683047 87565 7.74887e-12 -1.12357e+06 -3.2269e-12 -416913)
(-682723 8806.02 4.81129e-20 -1.13157e+06 -8.31964e-20 -418684)
(-682551 -69981.2 2.13292e-12 -1.13177e+06 -1.52863e-12 -418690)
(-682709 -149352 9.58865e-12 -1.12424e+06 2.64388e-12 -416988)
(-682799 -229730 0 -1.10879e+06 0 -413443)
(-683241 -311720 0 -1.08535e+06 0 -408136)
(-683749 -395807 -2.01912e-11 -1.05354e+06 -6.12516e-12 -400912)
(-685107 -482577 7.11066e-12 -1.01308e+06 -3.92206e-11 -391890)
(-687419 -572452 2.31698e-11 -963301 3.54027e-11 -380936)
(-692224 -665743 2.61889e-12 -903503 -1.66356e-11 -368245)
(-700572 -762328 5.60724e-12 -832300 -3.60684e-11 -353740)
(-715365 -861407 -3.53197e-11 -748027 -2.29742e-11 -337706)
(-738986 -961115 -4.44912e-11 -647999 1.67868e-11 -320074)
(-774863 -1.05797e+06 -3.83014e-12 -529648 2.02276e-11 -301041)
(-823040 -1.14669e+06 4.9359e-11 -390847 -1.91544e-11 -280128)
(-878979 -1.21965e+06 4.58431e-11 -233732 -2.16311e-13 -256779)
(-927397 -1.26756e+06 -3.45281e-11 -64189.9 -3.64005e-11 -228828)
(-946586 -1.27766e+06 4.57009e-19 100677 -2.83629e-20 -195210)
(-917745 -1.23419e+06 2.47718e-12 244778 1.58344e-11 -155300)
(-636922 933879 4.36679e-11 -469235 1.7847e-11 -255267)
(-617818 912381 -3.65406e-11 -477719 2.13733e-11 -252816)
(-613225 865248 5.71324e-12 -512732 3.71394e-11 -259836)
(-603083 796639 3.82494e-11 -546066 1.50756e-11 -265188)
(-590927 714251 -3.27151e-11 -576820 2.88452e-12 -269480)
(-579828 625183 3.19789e-11 -603209 1.22003e-11 -273009)
(-571163 534212 -3.49859e-19 -624674 1.18037e-19 -275962)
(-565153 443783 -2.31741e-12 -641544 -1.1939e-11 -278469)
(-561320 354890 3.41946e-11 -654454 -1.69837e-11 -280563)
(-559069 267624 2.23766e-12 -664022 7.84121e-12 -282252)
(-557880 181791 -2.20442e-11 -670711 1.66882e-12 -283521)
(-557289 96928.9 -4.61929e-12 -674826 1.71481e-11 -284334)
(-557061 12618.6 -2.20175e-12 -676573 -8.93556e-13 -284685)
(-556880 -71707.3 1.30928e-12 -676049 -6.68556e-12 -284522)
(-556729 -156523 0 -673345 0 -283863)
(-556390 -242449 2.21268e-12 -668478 -6.23566e-12 -282662)
(-556051 -330015 -1.82878e-11 -661503 4.92902e-12 -280974)
(-555666 -419904 2.02491e-11 -652374 3.50636e-12 -278778)
(-555806 -512718 2.26019e-12 -641065 -1.26534e-11 -276201)
(-556917 -609188 -2.82311e-11 -627334 -3.32287e-12 -273289)
(-560406 -709889 3.196e-11 -610781 3.1958e-12 -270274)
(-567889 -815349 0 -590433 0 -267305)
(-582547 -925551 2.56891e-12 -564705 -1.83486e-11 -264751)
(-608149 -1.03962e+06 2.7915e-12 -530723 -1.89685e-11 -262817)
(-650073 -1.15467e+06 -4.39361e-11 -484535 -2.09016e-12 -261833)
(-712647 -1.26452e+06 -3.47823e-11 -421236 -5.82977e-11 -261665)
(-797238 -1.3579e+06 9.33687e-11 -337185 1.41523e-12 -261790)
(-896753 -1.41816e+06 -8.50528e-19 -234860 -6.4638e-20 -261141)
(-991382 -1.42577e+06 -5.12415e-11 -119627 1.72493e-11 -256387)
(-1.05585e+06 -1.36291e+06 3.60924e-11 -12489.9 1.24894e-11 -246539)
(-620234 961953 3.93584e-11 -363306 7.21053e-12 -226971)
(-562732 937436 2.84189e-12 -352314 1.90347e-11 -211164)
(-521771 885659 -5.16287e-12 -355405 -3.6841e-11 -202425)
(-487460 811285 -2.91474e-20 -349439 1.19766e-21 -193131)
(-463341 723428 -4.50871e-12 -335974 -3.32073e-11 -184457)
(-447994 630251 0 -318027 0 -176774)
(-438954 536503 5.20524e-11 -298814 -2.41317e-12 -170254)
(-433828 444529 2.44003e-11 -280419 1.08711e-11 -164826)
(-431132 354762 -5.47455e-11 -264100 2.91872e-12 -160438)
(-429856 267201 -9.72219e-12 -250424 1.65834e-11 -156988)
(-429350 181245 -7.69111e-12 -239681 6.40881e-12 -154392)
(-429267 96530 7.85401e-12 -232026 2.53237e-12 -152606)
(-429194 12368 -9.71369e-13 -227505 -1.60936e-12 -151546)
(-429095 -71615.6 3.09339e-12 -226258 7.04118e-13 -151235)
(-428607 -156096 6.38856e-20 -228314 4.19968e-21 -151597)
(-427909 -241473 -1.17837e-11 -233919 -7.62002e-13 -152730)
(-426693 -328451 -1.3854e-11 -243152 -9.34795e-12 -154580)
(-425436 -417539 2.24041e-11 -256389 -9.74986e-12 -157344)
(-424070 -509544 -2.12626e-12 -273740 1.26963e-11 -161033)
(-423646 -605180 -1.53345e-20 -295614 6.6537e-20 -165983)
(-424809 -705436 0 -321937 0 -172326)
(-429884 -811283 3.55281e-11 -352728 1.61547e-12 -180603)
(-441332 -923749 2.0224e-12 -386953 -1.85051e-11 -191143)
(-464374 -1.04345e+06 -8.36346e-11 -422616 -4.09066e-12 -204690)
(-505878 -1.16959e+06 8.88259e-11 -455050 4.3792e-12 -221753)
(-576602 -1.29789e+06 4.91563e-11 -476097 -1.68429e-11 -242931)
(-687975 -1.41688e+06 -9.88142e-11 -474050 1.43205e-11 -268160)
(-846401 -1.50526e+06 -1.00128e-10 -436622 1.423e-11 -296082)
(-1.03912e+06 -1.53098e+06 -4.07228e-11 -365471 -1.56882e-11 -324136)
(-1.22366e+06 -1.46403e+06 7.10677e-11 -282332 1.27004e-11 -347536)
(-601354 964913 3.65446e-11 -276176 -1.199e-11 -202507)
(-496662 927800 4.01462e-11 -241337 -6.6664e-13 -170307)
(-417804 860425 3.61774e-11 -211470 -1.9768e-11 -145217)
(-362644 774004 3.39691e-11 -159097 -1.87933e-11 -120402)
(-331993 680458 -3.67239e-11 -94775.9 -3.47893e-11 -98485.1)
(-315970 587403 -2.96017e-11 -28198.1 -4.80772e-13 -79423.4)
(-309057 497046 -2.59884e-11 33618.5 -9.12089e-13 -63562.8)
(-305742 410416 6.19555e-12 87944.4 3.73833e-11 -50261)
(-304895 326389 2.03377e-11 133443 1.20163e-11 -39565.9)
(-304697 245043 -1.40845e-11 170141 -1.88828e-12 -31051.4)
(-305052 165003 -1.21411e-11 198013 -7.92773e-12 -24701.2)
(-305486 86491.1 -6.91429e-12 217231 -1.02542e-11 -20366.5)
(-305594 8207.95 1.26221e-12 227921 2.30736e-12 -17924.6)
(-305716 -69510.4 -2.32989e-12 229931 1.53542e-12 -17488.9)
(-304881 -147911 2.31248e-12 223384 -4.00899e-12 -18806.8)
(-304179 -226661 9.4625e-12 207745 4.28962e-12 -22253.8)
(-302090 -307004 -1.22618e-19 183085 1.92414e-20 -27462.5)
(-300506 -388753 -2.23028e-11 148457 1.27988e-11 -35088.3)
(-297546 -473235 -2.421e-11 103857 1.39425e-12 -44697.4)
(-296111 -560610 -1.93068e-12 47945.1 1.51596e-11 -57269)
(-294411 -652446 3.18752e-11 -19322.1 -4.98157e-13 -72399.9)
(-296827 -749550 3.54368e-11 -99553.1 7.58418e-14 -91472.4)
(-302667 -854035 1.52291e-12 -192499 -1.95954e-11 -114269)
(-319512 -967808 -4.04521e-11 -298877 -2.18908e-11 -142705)
(-351816 -1.0936e+06 -1.01691e-25 -415115 4.66421e-26 -176984)
(-417600 -1.2323e+06 -1.00589e-10 -533394 7.66516e-11 -219460)
(-537902 -1.37912e+06 2.16155e-12 -634260 -1.97992e-11 -270499)
(-747332 -1.51422e+06 9.58278e-11 -689971 2.49592e-11 -331685)
(-1.05327e+06 -1.59284e+06 -3.2696e-11 -669898 -5.08627e-11 -397654)
(-1.40866e+06 -1.55388e+06 -1.58315e-12 -597877 -1.41699e-11 -463047)
(-572284 934854 -4.50306e-11 -234731 -2.05273e-11 -186234)
(-405292 866905 -2.05908e-19 -175379 1.95567e-21 -134001)
(-290446 772941 3.88625e-11 -87194.2 -4.34851e-16 -87147.8)
(-230630 673007 3.46007e-11 34154.1 -1.94644e-11 -45340.5)
(-202259 580098 -3.13518e-11 163669 1.73508e-11 -8905.27)
(-192568 494754 -6.06756e-11 283602 -2.23163e-11 21007.8)
(-188454 416717 -2.39365e-11 389388 1.22945e-11 46369.3)
(-188355 342206 -2.06399e-12 478597 -1.34375e-11 66978.8)
(-188622 271449 2.20333e-12 552401 1.11704e-11 83949.2)
(-189492 201733 1.16636e-11 611028 -3.95903e-12 97277.6)
(-190623 134249 2.2003e-11 655247 1.65551e-11 107221)
(-190873 66714.6 -4.93185e-12 685669 -7.39207e-12 114184)
(-192041 580.215 -3.74527e-12 702026 -6.54421e-12 117689)
(-191092 -66278.2 3.6507e-12 705248 -9.43206e-12 118651)
(-191827 -132413 -2.48751e-12 694063 4.22485e-12 115901)
(-189333 -199797 -2.09093e-11 669742 3.67133e-12 110864)
(-189326 -267165 -2.29442e-11 630020 3.30496e-11 101699)
(-185217 -336349 2.00168e-11 576438 -4.56279e-12 90281.7)
(-184572 -406501 -4.18218e-12 505733 2.82614e-11 74114.2)
(-179569 -479382 2.70895e-19 419571 -3.31644e-20 55384.9)
(-179601 -554852 3.16444e-11 313679 -2.65362e-12 30941.2)
(-176228 -634806 7.18257e-11 189510 -2.35438e-11 3065.02)
(-180814 -720416 3.73344e-11 41593.7 2.08518e-11 -32127.8)
(-185687 -814888 -1.2504e-10 -129284 -1.59359e-12 -72685.7)
(-207053 -923237 -1.3456e-10 -328837 1.77351e-11 -123667)
(-247634 -1.05321e+06 9.53009e-11 -551819 -1.68982e-11 -184489)
(-349995 -1.21417e+06 5.13192e-11 -788935 -4.17764e-11 -262830)
(-562051 -1.40067e+06 6.77049e-19 -991907 7.34835e-20 -358606)
(-972654 -1.57223e+06 4.78555e-11 -1.09442e+06 2.50441e-11 -477017)
(-1.57402e+06 -1.62654e+06 -4.86228e-11 -1.0475e+06 -4.15335e-12 -604967)
(-500739 818903 -4.56184e-11 -336719 -2.25639e-11 -193260)
(-260294 699888 -1.99862e-19 -169278 1.5034e-20 -99132.1)
(-148625 586508 7.85011e-11 41384.6 1.24136e-12 -24747.8)
(-104272 491721 2.2886e-12 265854 4.61609e-11 37288)
(-89975.2 416194 -3.26627e-11 467063 -3.56686e-12 87020.2)
(-86193.5 353012 -2.91823e-11 639723 -4.8052e-12 127737)
(-85863.7 296162 -2.55661e-11 785023 -5.85349e-12 161345)
(-86747.5 242388 -4.46018e-12 906328 -2.96976e-11 189134)
(-87477 190231 1.54552e-11 1.00562e+06 -4.87037e-12 211880)
(-88773.4 138909 -1.89787e-11 1.08441e+06 -2.7351e-11 229763)
(-89195.1 88231.5 1.33881e-19 1.14391e+06 1.21156e-19 243395)
(-90383.3 37802.1 1.09438e-11 1.18429e+06 1.74916e-11 252440)
(-90226.8 -12291.6 0 1.20661e+06 0 257628)
(-91067.5 -62438.5 1.22395e-21 1.21013e+06 1.48463e-21 258244)
(-90147.9 -112411 9.08625e-12 1.19591e+06 -8.6589e-12 255177)
(-90421.1 -162646 -1.15725e-11 1.16238e+06 8.58768e-12 247374)
(-88595.1 -212836 -1.57428e-11 1.11064e+06 8.21021e-12 235856)
(-88162.7 -263536 2.48494e-12 1.03823e+06 -1.28189e-11 219247)
(-85508.4 -314468 -2.38e-11 946214 7.01645e-12 198624)
(-84650.9 -366427 5.5275e-11 831178 -1.23682e-11 172275)
(-81906.5 -419282 6.26246e-11 693879 -1.03738e-11 141224)
(-81851.2 -474241 -1.49713e-12 529734 2.23152e-11 103357)
(-80796.1 -531589 -3.92458e-11 338474 2.68496e-11 59464.2)
(-83846.6 -594020 -4.34168e-11 112894 7.86946e-11 6703.17)
(-88703 -665320 4.47204e-11 -150875 -5.36935e-11 -55287.3)
(-107018 -757019 4.67177e-11 -467053 -5.35656e-11 -132478)
(-158086 -887711 -4.97076e-11 -841418 2.32335e-11 -230655)
(-312123 -1.08186e+06 -5.45858e-11 -1.2712e+06 -6.60648e-11 -365383)
(-715649 -1.33333e+06 -5.76715e-11 -1.6705e+06 1.64564e-11 -550650)
(-1.55215e+06 -1.54195e+06 -6.2749e-12 -1.81005e+06 2.19045e-11 -775893)
(-221000 402992 -2.43926e-12 -925654 -3.06996e-12 -264613)
(-46726.3 299950 -1.61802e-11 -134216 8.6778e-13 -41756)
(1923.55 245644 -1.48434e-11 299860 -2.16069e-12 69642.3)
(17851.7 208874 1.5036e-11 614790 8.61541e-11 145994)
(21538.9 179654 1.15363e-11 863906 -1.86237e-11 204333)
(24698.2 154417 -2.09285e-11 1.07168e+06 6.91074e-12 253011)
(26019.2 128816 9.4746e-12 1.24708e+06 8.94702e-12 293792)
(28027.8 103922 6.96838e-12 1.39464e+06 -6.82766e-12 328307)
(29357.6 77388.5 -1.12677e-12 1.51612e+06 -1.39362e-11 356648)
(30316.8 51342.2 0 1.61285e+06 0 379191)
(31510.2 23706.4 -2.48959e-12 1.68592e+06 -1.56876e-11 396331)
(31273.5 -3210.12 0 1.73561e+06 0 407742)
(32271.6 -31413.7 6.07717e-14 1.76296e+06 -1.26579e-11 414284)
(30821.9 -58620.4 1.2987e-12 1.76733e+06 -1.68063e-12 414958)
(31600.5 -86693.1 2.82376e-20 1.74977e+06 -1.03536e-19 411087)
(28980.5 -113500 -1.24927e-12 1.70882e+06 8.03265e-12 401031)
(29512.8 -140660 1.19482e-12 1.6455e+06 -1.11442e-11 386540)
(25805.5 -166328 8.30777e-12 1.55756e+06 -1.1189e-11 365393)
(26032.9 -191787 -7.76818e-12 1.44589e+06 -2.39422e-11 339676)
(21282.2 -215623 9.24565e-20 1.3074e+06 -7.67459e-20 306619)
(21032.4 -238725 -1.05955e-19 1.14251e+06 6.83777e-20 268510)
(15125.7 -260274 1.26982e-11 947145 4.39493e-11 222062)
(14189.9 -280788 -1.47494e-11 721179 -2.26508e-11 169700)
(7422.46 -300479 -5.88945e-13 459668 6.02196e-11 107790)
(6356.75 -320316 3.49386e-11 160362 -6.67856e-11 38473.5)
(-746.915 -344384 -1.82549e-11 -188274 3.29722e-11 -43620.3)
(-8358.96 -380094 1.96284e-11 -612148 4.40134e-12 -143194)
(-53298.1 -448624 -8.17525e-13 -1.1857e+06 -3.94014e-11 -285923)
(-211494 -573564 -4.76768e-11 -2.0578e+06 -7.1417e-11 -523684)
(-640579 -734029 -4.92197e-12 -3.25183e+06 -4.49728e-12 -898248)
(-537176 546249 9.85167e-12 -468030 -1.72975e-11 -231971)
(-554745 550948 6.35554e-11 -179110 2.80269e-11 -169351)
(-651713 585897 -2.15646e-11 -172580 1.04896e-11 -190221)
(-754610 625483 1.74378e-11 -209502 1.05099e-11 -222487)
(-872262 663253 3.35657e-11 -267870 3.01926e-13 -263107)
(-1.00806e+06 706899 2.38234e-11 -343277 -2.58962e-11 -311848)
(-1.1649e+06 766800 2.63819e-11 -438653 3.74301e-12 -370050)
(-1.33559e+06 857778 2.01624e-11 -572117 7.09022e-12 -440240)
(-1.45368e+06 1.01424e+06 4.15982e-11 -809724 2.51994e-11 -522323)
(-1.31732e+06 1.3629e+06 0 -1.57047e+06 0 -666413)
(-585603 595428 -7.82454e-12 -540306 -6.78853e-12 -259825)
(-606128 609621 -4.10136e-11 -352757 -1.6978e-11 -221281)
(-672415 635241 2.92445e-11 -298988 4.26528e-11 -224170)
(-742783 678392 -4.61733e-11 -293833 -3.18174e-11 -239219)
(-822709 728018 -5.40407e-12 -329472 -1.49628e-11 -265888)
(-910957 784174 -4.23981e-11 -394658 -1.3258e-11 -301296)
(-1.0031e+06 853190 2.40839e-21 -492789 2.5795e-20 -345204)
(-1.08248e+06 945274 -9.07581e-11 -639805 -2.01928e-11 -397450)
(-1.10691e+06 1.07056e+06 -4.83473e-20 -871372 -2.2364e-20 -456526)
(-1.09149e+06 1.1973e+06 1.41828e-11 -1.32171e+06 -5.40562e-12 -556891)
(-609832 630542 2.2257e-11 -573655 -9.8521e-12 -273112)
(-616821 655558 -3.66223e-12 -420904 -1.80077e-11 -239475)
(-673786 672052 2.52443e-11 -377043 2.55175e-11 -242499)
(-728695 706423 3.04789e-11 -360866 4.11039e-11 -251437)
(-785544 752610 -2.6453e-11 -379425 -2.31857e-11 -268839)
(-842296 807205 1.1107e-11 -430674 -2.3075e-11 -293762)
(-894085 869764 1.10338e-11 -517010 2.86008e-11 -325637)
(-929781 940537 2.82857e-11 -646834 1.93311e-11 -363834)
(-931486 1.01513e+06 -1.52975e-11 -828197 -4.17497e-11 -406081)
(-953594 1.05051e+06 9.5553e-13 -1.13586e+06 -7.82361e-12 -482180)
(-630137 657887 -3.1611e-12 -602578 1.03955e-11 -284473)
(-621354 688565 2.49034e-11 -467032 2.58971e-11 -251166)
(-667693 700626 4.00629e-12 -436859 1.75375e-11 -254897)
(-710767 726181 2.59089e-11 -421633 2.47422e-11 -261323)
(-753196 763175 1.70986e-11 -430781 -8.92461e-12 -273225)
(-792268 808718 -4.86683e-12 -467882 -1.57383e-11 -290804)
(-823578 859428 2.2342e-11 -536045 6.45668e-12 -313759)
(-841785 910400 4.54223e-11 -640420 1.16738e-11 -342047)
(-839697 955302 2.76036e-11 -780753 2.00729e-11 -373950)
(-876636 959695 -1.5443e-11 -1.01919e+06 1.57574e-11 -437499)
(-646568 678424 -8.63672e-12 -625903 -5.28684e-12 -293647)
(-625153 712049 1.8029e-11 -502062 -1.02202e-11 -260126)
(-661401 721715 3.85884e-12 -481715 1.7639e-11 -263796)
(-694516 740809 2.58908e-11 -470987 2.48715e-11 -268962)
(-726772 768737 0 -476353 0 -277644)
(-755314 804052 -9.02842e-12 -502141 -3.2655e-11 -290182)
(-776899 843053 2.23879e-11 -552654 6.67897e-12 -306820)
(-788158 880086 -4.07979e-11 -632699 3.27338e-12 -327890)
(-785077 910030 -2.06725e-26 -741401 -7.70845e-26 -352264)
(-829390 901418 -1.67662e-12 -940255 8.96184e-12 -408380)
(-659006 693407 3.03525e-12 -643402 -1.0281e-11 -300556)
(-628330 728703 2.17652e-11 -530055 7.64939e-12 -267320)
(-656484 736864 -1.8071e-11 -516246 1.01179e-11 -270630)
(-681434 751735 2.58591e-11 -509550 2.49545e-11 -274842)
(-705992 772730 -1.71531e-19 -513839 -1.07455e-19 -281499)
(-727888 799290 1.3736e-11 -532149 -2.63773e-11 -290778)
(-743856 828856 -1.3842e-11 -568327 2.60592e-11 -302812)
(-751728 856262 4.9366e-11 -628212 2.9207e-11 -318448)
(-748643 877434 1.87391e-11 -712292 -1.01886e-11 -337139)
(-797362 861166 -1.89806e-12 -882967 9.38561e-12 -387768)
(-667825 704005 6.29668e-12 -655605 -1.98898e-11 -305407)
(-630325 740542 -4.38186e-11 -552094 -1.51313e-11 -272866)
(-652529 747648 -1.82971e-11 -543448 1.02904e-11 -275995)
(-671466 759728 -2.20282e-11 -540001 -7.44464e-12 -279569)
(-690149 775973 -2.21365e-11 -544150 -7.32401e-12 -284838)
(-706871 796250 -2.6297e-11 -557430 -2.42226e-11 -291762)
(-719406 818596 -2.64746e-11 -583357 -2.37653e-11 -300637)
(-725554 838906 4.10831e-11 -627848 -3.37596e-12 -312323)
(-722406 854156 -1.49758e-11 -692222 2.70898e-11 -326453)
(-774287 832248 2.08862e-11 -840266 4.76279e-12 -372589)
(-673708 711077 -2.97421e-12 -663337 1.02464e-11 -308549)
(-631127 748832 -4.06052e-11 -568844 3.05622e-12 -276916)
(-649045 755308 2.20577e-11 -564904 7.46085e-12 -280142)
(-663543 765638 -1.84298e-11 -564217 1.03189e-11 -283329)
(-677977 778738 -2.22052e-11 -568729 -7.28405e-12 -287701)
(-691221 794553 -7.72703e-12 -579029 -3.46078e-11 -293135)
(-700993 811873 -2.63144e-11 -597497 -2.41047e-11 -299652)
(-705837 827083 -1.86684e-11 -630371 1.0237e-11 -308356)
(-703191 837766 -4.89579e-11 -679589 -3.02342e-11 -319103)
(-757580 811457 1.81702e-11 -808866 -2.43074e-11 -361488)
(-677195 715343 -2.42515e-11 -667273 1.06632e-11 -310262)
(-630807 754471 -2.55253e-11 -580813 -2.56409e-11 -279605)
(-645727 760732 4.42961e-11 -581529 1.48519e-11 -283213)
(-657254 769965 7.19897e-12 -583698 3.56465e-11 -286373)
(-668680 781071 1.8594e-11 -588952 -1.04029e-11 -290223)
(-679131 794094 -2.60805e-11 -597229 -2.46271e-11 -294545)
(-687254 807851 -2.24348e-11 -610744 -7.01248e-12 -299538)
(-691498 819338 -2.25181e-11 -635263 -6.8689e-12 -306176)
(-689181 826791 -3.47531e-21 -672624 1.90541e-20 -314263)
(-745799 797061 -3.54547e-11 -786598 9.201e-12 -353630)
(-678860 717327 1.40273e-19 -668077 -2.02718e-20 -310832)
(-629676 758018 -1.01474e-11 -588659 -5.4744e-11 -281154)
(-642544 764502 1.87673e-11 -593977 -1.06762e-11 -285351)
(-651944 773285 2.93264e-11 -599063 4.32172e-11 -288694)
(-661402 783202 4.82415e-11 -605559 3.22645e-11 -292376)
(-670344 794324 4.69597e-19 -613091 2.90032e-19 -296177)
(-677155 805895 1.88014e-11 -623073 -1.04721e-11 -300052)
(-680974 814974 3.03152e-19 -641443 1.6358e-19 -305173)
(-679542 820042 2.61497e-11 -670163 2.42865e-11 -311470)
(-738192 787822 -2.64483e-12 -771894 9.59975e-12 -348481)
(-679069 717511 1.22121e-11 -666219 -5.32208e-12 -310451)
(-627873 759962 -6.71919e-12 -592870 -3.67665e-11 -281710)
(-639481 767046 -2.5749e-11 -602772 -2.56695e-11 -286674)
(-647656 775814 3.46653e-12 -611064 1.80762e-11 -290474)
(-655865 785195 5.86418e-21 -619221 1.33602e-21 -294251)
(-663607 795398 4.49022e-11 -626537 1.42669e-11 -297726)
(-670024 805543 -2.25293e-20 -634595 -3.65815e-21 -301066)
(-674048 813052 4.51026e-11 -648875 1.38791e-11 -305290)
(-673328 816779 -8.80749e-21 -671045 7.48221e-23 -310240)
(-733997 782834 1.2625e-11 -763278 -6.03777e-12 -345525)
(-678239 716246 -3.37873e-12 -662185 9.91373e-12 -309329)
(-625674 760632 1.90712e-11 -594020 -1.09267e-11 -281468)
(-636624 768671 -4.82483e-11 -608382 -3.33837e-11 -287309)
(-644017 777917 -1.90355e-11 -619912 1.086e-11 -291676)
(-651611 787256 -2.59414e-11 -630175 -2.53269e-11 -295797)
(-659109 796963 -2.25259e-11 -638310 -7.14412e-12 -299404)
(-665250 806544 1.90433e-11 -645264 -1.07223e-11 -302426)
(-669555 813354 -2.25998e-11 -656769 -6.95543e-12 -306075)
(-670096 816285 -1.56427e-11 -674630 2.85205e-11 -310321)
(-732769 781300 -1.29733e-11 -759645 5.34643e-12 -344403)
(-676614 713890 3.1378e-12 -656309 -1.06959e-11 -307598)
(-623154 760389 4.508e-11 -592463 1.55052e-11 -280527)
(-633986 769654 -1.91886e-11 -611181 1.10105e-11 -287346)
(-641228 779668 0 -626145 0 -292471)
(-648625 789404 0 -638808 0 -297100)
(-655899 799291 -6.89049e-12 -648047 -3.61287e-11 -300910)
(-662473 808691 2.26506e-11 -655093 7.06249e-12 -304054)
(-667578 815267 -3.83614e-11 -665271 2.16532e-11 -307580)
(-669165 818157 2.26907e-11 -680136 6.89714e-12 -311377)
(-733946 782635 2.53323e-11 -759935 -1.20086e-11 -344742)
(-674524 710710 1.52557e-11 -648997 -1.67126e-11 -305428)
(-620548 759474 2.26934e-11 -588650 7.907e-12 -279046)
(-631668 770214 2.60478e-11 -611521 2.65398e-11 -286890)
(-638995 781358 -2.27141e-11 -629828 -7.52173e-12 -292805)
(-646605 791812 -3.38229e-12 -645173 -1.84333e-11 -298103)
(-654395 802072 4.20797e-11 -656335 -3.79893e-12 -302476)
(-661334 811878 -1.93148e-11 -663962 1.09497e-11 -305838)
(-667194 818793 3.4315e-22 -673660 -3.3063e-21 -309428)
(-670319 821924 1.58558e-11 -687184 -2.88317e-11 -313270)
(-737258 786304 2.77803e-11 -763427 -2.25229e-11 -346312)
(-672152 707006 3.62918e-12 -640539 -1.05028e-11 -302929)
(-617923 758175 4.18352e-20 -582867 5.45993e-20 -277105)
(-629705 770563 1.00067e-11 -609701 5.73786e-11 -286017)
(-637579 783007 2.62319e-11 -631417 2.653e-11 -292845)
(-645645 794474 -3.299e-11 -649568 -6.34357e-11 -298895)
(-653798 805604 -2.62998e-11 -662711 -2.57214e-11 -303810)
(-661672 815975 6.87013e-12 -671837 3.64253e-11 -307733)
(-668694 823459 2.5746e-21 -682140 -1.71494e-20 -311731)
(-673058 827368 -2.98512e-11 -695156 -4.28717e-11 -315742)
(-742289 791936 -2.29206e-11 -769383 2.30009e-12 -348848)
(-669792 703001 3.14724e-12 -631331 -1.2012e-11 -300259)
(-615514 756673 -2.30927e-11 -575546 -8.32187e-12 -274860)
(-628214 770861 -2.6007e-19 -606038 -1.74279e-19 -284827)
(-636727 784861 4.95234e-11 -630936 3.47818e-11 -292538)
(-645522 797535 2.64509e-11 -652007 2.65039e-11 -299430)
(-654655 809574 -5.2969e-11 -667747 -5.21012e-11 -305170)
(-663265 820932 -2.30922e-11 -678579 -7.21727e-12 -309656)
(-671293 829372 3.46619e-12 -690007 1.82133e-11 -314146)
(-677320 834148 -2.30809e-11 -703806 -6.95845e-12 -318721)
(-748890 799161 -2.57967e-11 -777340 1.22523e-11 -352207)
(-667608 698982 1.25422e-11 -621680 -5.00746e-12 -297528)
(-613401 755219 0 -566957 0 -272390)
(-627266 771274 2.33393e-11 -600806 8.26615e-12 -283401)
(-636756 786887 -2.33327e-11 -628839 -7.98506e-12 -292060)
(-646398 800954 5.00155e-11 -652795 3.46988e-11 -299814)
(-656228 814288 3.39637e-12 -670967 1.89334e-11 -306276)
(-666042 826654 -2.33102e-11 -684173 -7.31475e-12 -311588)
(-675404 836118 0 -697524 0 -316829)
(-682717 842140 0 -712621 0 -322001)
(-756728 807729 0 -786752 0 -356188)
(-665924 695196 -2.5281e-11 -612055 9.88099e-12 -294918)
(-611879 753976 -4.72734e-11 -557536 -1.77414e-11 -269865)
(-627044 771912 3.3502e-12 -594302 2.02871e-11 -281849)
(-637474 789270 2.36114e-11 -625131 8.20386e-12 -291371)
(-648099 804824 -2.35972e-11 -651950 -7.9196e-12 -300011)
(-659129 819400 -2.0169e-11 -672993 1.15795e-11 -307413)
(-669839 833103 0 -688528 0 -313469)
(-680300 843856 2.35484e-11 -704042 7.24159e-12 -319464)
(-689263 851066 0 -721442 0 -325547)
(-765706 817353 -1.31593e-11 -797298 6.27276e-12 -360693)
(-664964 691995 5.21188e-20 -602904 -1.99263e-20 -292585)
(-611128 753197 -3.06404e-11 -547561 -5.162e-11 -267390)
(-627734 772883 -5.8016e-11 -586751 -7.99285e-11 -280266)
(-639297 791881 3.38362e-12 -620220 2.03605e-11 -290658)
(-650859 809004 -1.36951e-11 -649779 5.17918e-11 -300147)
(-662646 825152 2.38841e-11 -673382 7.84931e-12 -308314)
(-674623 840152 -6.97446e-12 -691712 -3.84594e-11 -315308)
(-686435 852182 -4.37832e-20 -709918 -5.24714e-20 -322235)
(-696586 860854 3.09411e-11 -729813 4.45233e-11 -329169)
(-775508 827837 -3.0871e-12 -808520 9.429e-12 -365545)
(-665140 689727 8.54037e-12 -594918 7.3428e-12 -290783)
(-611569 753069 5.54051e-11 -537488 6.26618e-11 -265167)
(-629644 774255 -2.43137e-11 -578326 -9.11968e-12 -278762)