/*--------------------------------*- C++ -*----------------------------------*\
| =========                 |                                                 |
| \\      /  F ield         | OpenFOAM: The Open Source CFD Toolbox           |
|  \\    /   O peration     | Version:  2106                                  |
|   \\  /    A nd           | Website:  www.openfoam.com                      |
|    \\/     M anipulation  |                                                 |
\*---------------------------------------------------------------------------*/
FoamFile
{
    version     2.0;
    format      ascii;
    arch        "LSB;label=32;scalar=64";
    class       volVectorField;
    location    "100";
    object      D;
}
// * * * * * * * * * * * * * * * * * * * * * * * * * * * * * * * * * * * * * //

dimensions      [0 1 0 0 0 0 0];

internalField   nonuniform List<vector> 
3500
(
(0.000114536 3.7983e-06 0)
(0.00011695 3.16693e-06 0)
(0.000119141 2.32965e-06 0)
(0.000121054 1.33489e-06 0)
(0.000122668 2.18754e-07 0)
(0.000123972 -9.93059e-07 0)
(0.000124954 -2.27946e-06 0)
(0.000125604 -3.62319e-06 0)
(0.000125917 -5.00802e-06 0)
(0.000125886 -6.41939e-06 0)
(0.00012551 -7.84272e-06 0)
(0.000124788 -9.2643e-06 0)
(0.000123722 -1.067e-05 0)
(0.000122316 -1.20463e-05 0)
(0.00012058 -1.3379e-05 0)
(0.000118521 -1.46542e-05 0)
(0.000116155 -1.58576e-05 0)
(0.000113496 -1.69748e-05 0)
(0.000110565 -1.79911e-05 0)
(0.000107382 -1.88914e-05 0)
(0.000103976 -1.96606e-05 0)
(0.000100376 -2.02833e-05 0)
(9.66162e-05 -2.07445e-05 0)
(9.2737e-05 -2.103e-05 0)
(8.87835e-05 -2.11273e-05 0)
(8.48034e-05 -2.10267e-05 0)
(8.08469e-05 -2.07229e-05 0)
(7.69586e-05 -2.02143e-05 0)
(7.31706e-05 -1.95033e-05 0)
(6.94993e-05 -1.85887e-05 0)
(0.000114533 1.78938e-06 0)
(0.000116933 1.18016e-06 0)
(0.000119135 4.9316e-07 0)
(0.000121073 -2.8014e-07 0)
(0.000122713 -1.13432e-06 0)
(0.000124039 -2.05801e-06 0)
(0.000125039 -3.03824e-06 0)
(0.000125703 -4.06258e-06 0)
(0.000126025 -5.11901e-06 0)
(0.000126 -6.19618e-06 0)
(0.000125625 -7.2829e-06 0)
(0.0001249 -8.36833e-06 0)
(0.000123827 -9.44157e-06 0)
(0.000122412 -1.04918e-05 0)
(0.00012066 -1.15082e-05 0)
(0.000118583 -1.24799e-05 0)
(0.000116194 -1.33957e-05 0)
(0.000113509 -1.42446e-05 0)
(0.000110546 -1.50154e-05 0)
(0.000107329 -1.56967e-05 0)
(0.000103883 -1.62771e-05 0)
(0.000100238 -1.67452e-05 0)
(9.643e-05 -1.70896e-05 0)
(9.24979e-05 -1.72994e-05 0)
(8.84871e-05 -1.73644e-05 0)
(8.44464e-05 -1.72755e-05 0)
(8.04275e-05 -1.70258e-05 0)
(7.64797e-05 -1.66117e-05 0)
(7.26486e-05 -1.6036e-05 0)
(6.89828e-05 -1.53159e-05 0)
(0.000114565 7.64507e-08 0)
(0.000116944 -4.70774e-07 0)
(0.000119129 -1.03904e-06 0)
(0.000121064 -1.63918e-06 0)
(0.000122712 -2.27791e-06 0)
(0.000124047 -2.95519e-06 0)
(0.000125057 -3.66677e-06 0)
(0.000125729 -4.40654e-06 0)
(0.000126056 -5.16751e-06 0)
(0.000126034 -5.94241e-06 0)
(0.00012566 -6.72376e-06 0)
(0.000124933 -7.50403e-06 0)
(0.000123855 -8.27561e-06 0)
(0.000122431 -9.03086e-06 0)
(0.000120669 -9.76207e-06 0)
(0.000118578 -1.04615e-05 0)
(0.000116173 -1.11215e-05 0)
(0.000113467 -1.17342e-05 0)
(0.000110482 -1.22918e-05 0)
(0.000107238 -1.27865e-05 0)
(0.000103762 -1.32102e-05 0)
(0.000100084 -1.3555e-05 0)
(9.62379e-05 -1.38122e-05 0)
(9.22626e-05 -1.39731e-05 0)
(8.82031e-05 -1.40283e-05 0)
(8.41089e-05 -1.39687e-05 0)
(8.00346e-05 -1.37864e-05 0)
(7.60376e-05 -1.34776e-05 0)
(7.21788e-05 -1.30477e-05 0)
(6.85238e-05 -1.25142e-05 0)
(0.000114593 -1.54731e-06 0)
(0.000116961 -1.98282e-06 0)
(0.000119126 -2.41624e-06 0)
(0.000121046 -2.85006e-06 0)
(0.000122685 -3.29091e-06 0)
(0.000124018 -3.74318e-06 0)
(0.000125028 -4.20841e-06 0)
(0.000125701 -4.68586e-06 0)
(0.00012603 -5.17331e-06 0)
(0.000126009 -5.66761e-06 0)
(0.000125634 -6.16505e-06 0)
(0.000124905 -6.66154e-06 0)
(0.000123823 -7.15277e-06 0)
(0.000122394 -7.63432e-06 0)
(0.000120625 -8.10171e-06 0)
(0.000118526 -8.55042e-06 0)
(0.000116109 -8.97597e-06 0)
(0.000113391 -9.37387e-06 0)
(0.000110391 -9.73968e-06 0)
(0.00010713 -1.00689e-05 0)
(0.000103635 -1.03569e-05 0)
(9.99332e-05 -1.05986e-05 0)
(9.60586e-05 -1.07883e-05 0)
(9.20488e-05 -1.09192e-05 0)
(8.7947e-05 -1.09827e-05 0)
(8.38033e-05 -1.09692e-05 0)
(7.96754e-05 -1.08687e-05 0)
(7.56291e-05 -1.06746e-05 0)
(7.17376e-05 -1.03879e-05 0)
(6.80772e-05 -1.00211e-05 0)
(0.000114598 -3.17474e-06 0)
(0.000116965 -3.46631e-06 0)
(0.000119115 -3.7422e-06 0)
(0.000121017 -3.99927e-06 0)
(0.00012264 -4.24159e-06 0)
(0.000123962 -4.47445e-06 0)
(0.000124964 -4.70239e-06 0)
(0.000125633 -4.92845e-06 0)
(0.000125959 -5.15424e-06 0)
(0.000125936 -5.38031e-06 0)
(0.00012556 -5.6064e-06 0)
(0.000124829 -5.83176e-06 0)
(0.000123746 -6.05531e-06 0)
(0.000122314 -6.27583e-06 0)
(0.000120542 -6.49199e-06 0)
(0.000118438 -6.70246e-06 0)
(0.000116017 -6.90596e-06 0)
(0.000113293 -7.10124e-06 0)
(0.000110287 -7.28713e-06 0)
(0.000107018 -7.46243e-06 0)
(0.000103513 -7.6258e-06 0)
(9.97979e-05 -7.77546e-06 0)
(9.59054e-05 -7.90875e-06 0)
(9.18705e-05 -8.02139e-06 0)
(8.77336e-05 -8.10656e-06 0)
(8.35431e-05 -8.15416e-06 0)
(7.93579e-05 -8.15101e-06 0)
(7.52506e-05 -8.0832e-06 0)
(7.13061e-05 -7.94198e-06 0)
(6.76136e-05 -7.72897e-06 0)
(0.000114574 -4.86403e-06 0)
(0.000116946 -4.99122e-06 0)
(0.000119085 -5.0897e-06 0)
(0.000120967 -5.154e-06 0)
(0.000122571 -5.18728e-06 0)
(0.000123877 -5.19538e-06 0)
(0.000124867 -5.18454e-06 0)
(0.000125527 -5.16028e-06 0)
(0.000125848 -5.12706e-06 0)
(0.000125821 -5.08844e-06 0)
(0.000125443 -5.04719e-06 0)
(0.000124711 -5.00566e-06 0)
(0.000123628 -4.96583e-06 0)
(0.000122196 -4.92958e-06 0)
(0.000120424 -4.89865e-06 0)
(0.000118322 -4.87485e-06 0)
(0.000115902 -4.86e-06 0)
(0.000113179 -4.85602e-06 0)
(0.000110174 -4.86493e-06 0)
(0.000106907 -4.88876e-06 0)
(0.000103401 -4.9295e-06 0)
(9.96848e-05 -4.98886e-06 0)
(9.57864e-05 -5.06781e-06 0)
(9.17382e-05 -5.16576e-06 0)
(8.75764e-05 -5.2792e-06 0)
(8.3344e-05 -5.39964e-06 0)
(7.90963e-05 -5.5113e-06 0)
(7.49079e-05 -5.59063e-06 0)
(7.08762e-05 -5.61109e-06 0)
(6.71128e-05 -5.55781e-06 0)
(0.000114519 -6.66507e-06 0)
(0.000116897 -6.61227e-06 0)
(0.000119024 -6.5143e-06 0)
(0.000120887 -6.36681e-06 0)
(0.000122469 -6.17489e-06 0)
(0.000123756 -5.94565e-06 0)
(0.000124732 -5.68667e-06 0)
(0.000125381 -5.40502e-06 0)
(0.000125695 -5.10726e-06 0)
(0.000125664 -4.79925e-06 0)
(0.000125284 -4.48648e-06 0)
(0.000124552 -4.17404e-06 0)
(0.000123469 -3.86688e-06 0)
(0.000122041 -3.56979e-06 0)
(0.000120273 -3.28759e-06 0)
(0.000118176 -3.02508e-06 0)
(0.000115762 -2.78716e-06 0)
(0.000113048 -2.5788e-06 0)
(0.000110052 -2.40508e-06 0)
(0.000106795 -2.27118e-06 0)
(0.0001033 -2.18236e-06 0)
(9.95933e-05 -2.14386e-06 0)
(9.57026e-05 -2.16065e-06 0)
(9.16565e-05 -2.2369e-06 0)
(8.74856e-05 -2.37466e-06 0)
(8.32239e-05 -2.57109e-06 0)
(7.89151e-05 -2.81335e-06 0)
(7.4625e-05 -3.07179e-06 0)
(7.04589e-05 -3.2977e-06 0)
(6.6564e-05 -3.43872e-06 0)
(0.000114435 -8.63109e-06 0)
(0.000116813 -8.3795e-06 0)
(0.000118922 -8.06164e-06 0)
(0.000120761 -7.67986e-06 0)
(0.000122322 -7.24302e-06 0)
(0.000123589 -6.75932e-06 0)
(0.000124549 -6.23717e-06 0)
(0.000125187 -5.68445e-06 0)
(0.000125493 -5.10936e-06 0)
(0.000125457 -4.51962e-06 0)
(0.000125075 -3.9232e-06 0)
(0.000124344 -3.32771e-06 0)
(0.000123265 -2.74104e-06 0)
(0.000121841 -2.17077e-06 0)
(0.000120081 -1.62481e-06 0)
(0.000117994 -1.11085e-06 0)
(0.000115593 -6.36865e-07 0)
(0.000112893 -2.10702e-07 0)
(0.000109913 1.59534e-07 0)
(0.000106674 4.65759e-07 0)
(0.0001032 6.99643e-07 0)
(9.95151e-05 8.52713e-07 0)
(9.56466e-05 9.1619e-07 0)
(9.16205e-05 8.81022e-07 0)
(8.74629e-05 7.38277e-07 0)
(8.31971e-05 4.80759e-07 0)
(7.88476e-05 1.08331e-07 0)
(7.44523e-05 -3.60035e-07 0)
(7.00995e-05 -8.64909e-07 0)
(6.59751e-05 -1.298e-06 0)
(0.000114327 -1.08242e-05 0)
(0.000116683 -1.03373e-05 0)
(0.000118762 -9.76856e-06 0)
(0.000120575 -9.12868e-06 0)
(0.000122112 -8.42591e-06 0)
(0.000123361 -7.66842e-06 0)
(0.000124305 -6.86363e-06 0)
(0.000124932 -6.02075e-06 0)
(0.000125229 -5.1486e-06 0)
(0.000125188 -4.25751e-06 0)
(0.000124804 -3.35718e-06 0)
(0.000124075 -2.45846e-06 0)
(0.000123001 -1.57153e-06 0)
(0.000121586 -7.07425e-07 0)
(0.000119836 1.2339e-07 0)
(0.000117764 9.09854e-07 0)
(0.000115379 1.64135e-06 0)
(0.0001127 2.30686e-06 0)
(0.000109743 2.89566e-06 0)
(0.000106532 3.39676e-06 0)
(0.000103087 3.79924e-06 0)
(9.94351e-05 4.09195e-06 0)
(9.56015e-05 4.26322e-06 0)
(9.16135e-05 4.30065e-06 0)
(8.74934e-05 4.18988e-06 0)
(8.32596e-05 3.9143e-06 0)
(7.89164e-05 3.45427e-06 0)
(7.44596e-05 2.79479e-06 0)
(6.99043e-05 1.9492e-06 0)
(6.54108e-05 1.02819e-06 0)
(0.000114185 -1.32877e-05 0)
(0.00011648 -1.25099e-05 0)
(0.000118524 -1.16659e-05 0)
(0.000120311 -1.0749e-05 0)
(0.000121827 -9.76181e-06 0)
(0.000123056 -8.70901e-06 0)
(0.000123984 -7.59856e-06 0)
(0.000124597 -6.43972e-06 0)
(0.000124885 -5.24388e-06 0)
(0.000124839 -4.02289e-06 0)
(0.000124454 -2.78988e-06 0)
(0.000123727 -1.55797e-06 0)
(0.000122659 -3.40957e-07 0)
(0.000121254 8.47537e-07 0)
(0.000119519 1.99352e-06 0)
(0.000117464 3.08323e-06 0)
(0.000115103 4.10275e-06 0)
(0.00011245 5.03838e-06 0)
(0.000109524 5.87644e-06 0)
(0.000106346 6.60344e-06 0)
(0.00010294 7.20609e-06 0)
(9.93299e-05 7.67116e-06 0)
(9.55434e-05 7.98564e-06 0)
(9.1606e-05 8.13605e-06 0)
(8.75427e-05 8.1083e-06 0)
(8.33702e-05 7.88523e-06 0)
(7.90899e-05 7.443e-06 0)
(7.46691e-05 6.73918e-06 0)
(7.00311e-05 5.69214e-06 0)
(6.51318e-05 4.14635e-06 0)
(1.9536e-05 -5.48996e-05 0)
(1.95027e-05 -5.71741e-05 0)
(1.93902e-05 -5.91178e-05 0)
(1.92251e-05 -6.08603e-05 0)
(1.89955e-05 -6.24374e-05 0)
(1.86871e-05 -6.38495e-05 0)
(1.82852e-05 -6.50837e-05 0)
(1.77757e-05 -6.61226e-05 0)
(1.71591e-05 -6.69563e-05 0)
(1.65256e-05 -6.76303e-05 0)
(2.15561e-05 -5.26081e-05 0)
(2.15102e-05 -5.52392e-05 0)
(2.13836e-05 -5.75154e-05 0)
(2.12094e-05 -5.95172e-05 0)
(2.09891e-05 -6.1308e-05 0)
(2.07159e-05 -6.29152e-05 0)
(2.03829e-05 -6.43438e-05 0)
(1.999e-05 -6.55916e-05 0)
(1.9558e-05 -6.66666e-05 0)
(1.91534e-05 -6.76179e-05 0)
(2.38342e-05 -5.03139e-05 0)
(2.3775e-05 -5.31564e-05 0)
(2.36371e-05 -5.57043e-05 0)
(2.34514e-05 -5.79728e-05 0)
(2.32294e-05 -6.00042e-05 0)
(2.29733e-05 -6.1832e-05 0)
(2.2683e-05 -6.34745e-05 0)
(2.23631e-05 -6.49409e-05 0)
(2.20301e-05 -6.62439e-05 0)
(2.1714e-05 -6.74164e-05 0)
(2.63159e-05 -4.79918e-05 0)
(2.62491e-05 -5.09844e-05 0)
(2.61069e-05 -5.374e-05 0)
(2.59142e-05 -5.62454e-05 0)
(2.56869e-05 -5.85161e-05 0)
(2.54342e-05 -6.05753e-05 0)
(2.51616e-05 -6.24432e-05 0)
(2.48748e-05 -6.41343e-05 0)
(2.45839e-05 -6.56615e-05 0)
(2.43023e-05 -6.70482e-05 0)
(2.89755e-05 -4.56344e-05 0)
(2.89024e-05 -4.87474e-05 0)
(2.87593e-05 -5.16658e-05 0)
(2.85648e-05 -5.43696e-05 0)
(2.83339e-05 -5.68581e-05 0)
(2.80794e-05 -5.91418e-05 0)
(2.78102e-05 -6.12352e-05 0)
(2.75337e-05 -6.31518e-05 0)
(2.72574e-05 -6.49037e-05 0)
(2.69897e-05 -6.65104e-05 0)
(3.17952e-05 -4.32408e-05 0)
(3.17153e-05 -4.64562e-05 0)
(3.15715e-05 -4.95072e-05 0)
(3.13778e-05 -5.23753e-05 0)
(3.11466e-05 -5.50535e-05 0)
(3.08905e-05 -5.75431e-05 0)
(3.06204e-05 -5.98512e-05 0)
(3.0345e-05 -6.19875e-05 0)
(3.00725e-05 -6.39624e-05 0)
(2.98111e-05 -6.57935e-05 0)
(3.47593e-05 -4.08141e-05 0)
(3.4672e-05 -4.41177e-05 0)
(3.45268e-05 -4.72796e-05 0)
(3.43345e-05 -5.0285e-05 0)
(3.41052e-05 -5.31254e-05 0)
(3.385e-05 -5.57975e-05 0)
(3.35798e-05 -5.83029e-05 0)
(3.33044e-05 -6.06468e-05 0)
(3.30333e-05 -6.28372e-05 0)
(3.27765e-05 -6.48908e-05 0)
(3.78535e-05 -3.83593e-05 0)
(3.77586e-05 -4.17384e-05 0)
(3.76108e-05 -4.49942e-05 0)
(3.74197e-05 -4.81151e-05 0)
(3.71933e-05 -5.10937e-05 0)
(3.69412e-05 -5.39247e-05 0)
(3.66735e-05 -5.66067e-05 0)
(3.64002e-05 -5.91414e-05 0)
(3.61318e-05 -6.15347e-05 0)
(3.58805e-05 -6.38023e-05 0)
(4.10641e-05 -3.58829e-05 0)
(4.09615e-05 -3.93252e-05 0)
(4.08104e-05 -4.266e-05 0)
(4.06198e-05 -4.58785e-05 0)
(4.03965e-05 -4.89745e-05 0)
(4.01489e-05 -5.19428e-05 0)
(3.98859e-05 -5.47803e-05 0)
(3.96173e-05 -5.74868e-05 0)
(3.93541e-05 -6.00666e-05 0)
(3.91099e-05 -6.25341e-05 0)
(4.43779e-05 -3.33918e-05 0)
(4.42676e-05 -3.68853e-05 0)
(4.41127e-05 -4.02855e-05 0)
(4.39218e-05 -4.35858e-05 0)
(4.37013e-05 -4.67813e-05 0)
(4.34585e-05 -4.98674e-05 0)
(4.32016e-05 -5.28404e-05 0)
(4.29397e-05 -5.56993e-05 0)
(4.26839e-05 -5.84472e-05 0)
(4.24483e-05 -6.10972e-05 0)
(4.77826e-05 -3.08935e-05 0)
(4.76647e-05 -3.44263e-05 0)
(4.75053e-05 -3.78789e-05 0)
(4.73134e-05 -4.12465e-05 0)
(4.70949e-05 -4.45255e-05 0)
(4.68567e-05 -4.77118e-05 0)
(4.66063e-05 -5.0802e-05 0)
(4.63522e-05 -5.37944e-05 0)
(4.6105e-05 -5.66916e-05 0)
(4.58787e-05 -5.95054e-05 0)
(5.12662e-05 -2.83959e-05 0)
(5.11406e-05 -3.19559e-05 0)
(5.09764e-05 -3.54482e-05 0)
(5.07825e-05 -3.88695e-05 0)
(5.05652e-05 -4.22172e-05 0)
(5.03309e-05 -4.54878e-05 0)
(5.00865e-05 -4.86781e-05 0)
(4.98403e-05 -5.17863e-05 0)
(4.96022e-05 -5.48147e-05 0)
(4.93855e-05 -5.77738e-05 0)
(5.48175e-05 -2.5907e-05 0)
(5.46841e-05 -2.94821e-05 0)
(5.45144e-05 -3.30014e-05 0)
(5.43176e-05 -3.64632e-05 0)
(5.41003e-05 -3.98656e-05 0)
(5.38688e-05 -4.32056e-05 0)
(5.36299e-05 -4.64803e-05 0)
(5.3391e-05 -4.96879e-05 0)
(5.31616e-05 -5.28304e-05 0)
(5.29545e-05 -5.59168e-05 0)
(5.84258e-05 -2.34357e-05 0)
(5.82842e-05 -2.70132e-05 0)
(5.81082e-05 -3.05467e-05 0)
(5.79076e-05 -3.40358e-05 0)
(5.76891e-05 -3.74793e-05 0)
(5.74592e-05 -4.08747e-05 0)
(5.72245e-05 -4.42191e-05 0)
(5.69922e-05 -4.75107e-05 0)
(5.67709e-05 -5.07513e-05 0)
(5.65728e-05 -5.39485e-05 0)
(6.20805e-05 -2.09916e-05 0)
(6.19303e-05 -2.45582e-05 0)
(6.17472e-05 -2.80926e-05 0)
(6.15415e-05 -3.15957e-05 0)
(6.13205e-05 -3.50668e-05 0)
(6.10909e-05 -3.85038e-05 0)
(6.08593e-05 -4.19039e-05 0)
(6.06323e-05 -4.52652e-05 0)
(6.04184e-05 -4.85889e-05 0)
(6.02289e-05 -5.18814e-05 0)
(6.57714e-05 -1.85849e-05 0)
(6.56119e-05 -2.21265e-05 0)
(6.54206e-05 -2.56478e-05 0)
(6.52085e-05 -2.91511e-05 0)
(6.49837e-05 -3.26364e-05 0)
(6.47531e-05 -3.61014e-05 0)
(6.45231e-05 -3.95436e-05 0)
(6.43004e-05 -4.29607e-05 0)
(6.4093e-05 -4.63535e-05 0)
(6.39115e-05 -4.97273e-05 0)
(6.94879e-05 -1.62275e-05 0)
(6.93185e-05 -1.97286e-05 0)
(6.91177e-05 -2.32217e-05 0)
(6.8898e-05 -2.67109e-05 0)
(6.86679e-05 -3.01963e-05 0)
(6.84347e-05 -3.36759e-05 0)
(6.82051e-05 -3.71467e-05 0)
(6.79857e-05 -4.06062e-05 0)
(6.77839e-05 -4.40548e-05 0)
(6.76101e-05 -4.74963e-05 0)
(7.32191e-05 -1.39325e-05 0)
(7.30388e-05 -1.73759e-05 0)
(7.28275e-05 -2.08247e-05 0)
(7.25987e-05 -2.42844e-05 0)
(7.23618e-05 -2.77554e-05 0)
(7.21247e-05 -3.12355e-05 0)
(7.18942e-05 -3.47214e-05 0)
(7.1677e-05 -3.82102e-05 0)
(7.14802e-05 -4.17015e-05 0)
(7.13138e-05 -4.51981e-05 0)
(7.6953e-05 -1.17148e-05 0)
(7.67611e-05 -1.50814e-05 0)
(7.65381e-05 -1.84681e-05 0)
(7.62989e-05 -2.18816e-05 0)
(7.60539e-05 -2.53227e-05 0)
(7.58115e-05 -2.87887e-05 0)
(7.5579e-05 -3.22759e-05 0)
(7.5363e-05 -3.57808e-05 0)
(7.51706e-05 -3.93022e-05 0)
(7.50114e-05 -4.28414e-05 0)
(8.06761e-05 -9.59148e-06 0)
(8.04718e-05 -1.28599e-05 0)
(8.02364e-05 -1.61644e-05 0)
(7.99859e-05 -1.95136e-05 0)
(7.97317e-05 -2.29079e-05 0)
(7.94829e-05 -2.63444e-05 0)
(7.92473e-05 -2.98187e-05 0)
(7.90318e-05 -3.33262e-05 0)
(7.88433e-05 -3.68648e-05 0)
(7.86914e-05 -4.04344e-05 0)
(8.43722e-05 -7.5815e-06 0)
(8.41555e-05 -1.07279e-05 0)
(8.39079e-05 -1.39285e-05 0)
(8.3646e-05 -1.7193e-05 0)
(8.3382e-05 -2.0522e-05 0)
(8.3126e-05 -2.39122e-05 0)
(8.28864e-05 -2.73583e-05 0)
(8.26706e-05 -3.08545e-05 0)
(8.24858e-05 -3.43974e-05 0)
(8.23414e-05 -3.79852e-05 0)
(8.80215e-05 -5.70557e-06 0)
(8.77934e-05 -8.70441e-06 0)
(8.75353e-05 -1.17771e-05 0)
(8.72634e-05 -1.49344e-05 0)
(8.69903e-05 -1.81773e-05 0)
(8.67269e-05 -2.15024e-05 0)
(8.64828e-05 -2.49038e-05 0)
(8.62662e-05 -2.83741e-05 0)
(8.60848e-05 -3.1908e-05 0)
(8.59482e-05 -3.55016e-05 0)
(9.15997e-05 -3.98491e-06 0)
(9.13631e-05 -6.81003e-06 0)
(9.10984e-05 -9.72964e-06 0)
(9.08204e-05 -1.27553e-05 0)
(9.05408e-05 -1.58885e-05 0)
(9.02712e-05 -1.9127e-05 0)
(9.00225e-05 -2.24648e-05 0)
(8.98047e-05 -2.58933e-05 0)
(8.96265e-05 -2.94045e-05 0)
(8.9498e-05 -3.29914e-05 0)
(9.50777e-05 -2.43914e-06 0)
(9.48374e-05 -5.06641e-06 0)
(9.45736e-05 -7.80851e-06 0)
(9.42966e-05 -1.06766e-05 0)
(9.40162e-05 -1.36738e-05 0)
(9.37436e-05 -1.68003e-05 0)
(9.34913e-05 -2.00523e-05 0)
(9.3272e-05 -2.34206e-05 0)
(9.30965e-05 -2.68945e-05 0)
(9.29763e-05 -3.04623e-05 0)
(9.84218e-05 -1.08263e-06 0)
(9.81855e-05 -3.49398e-06 0)
(9.79334e-05 -6.03778e-06 0)
(9.76687e-05 -8.72342e-06 0)
(9.7397e-05 -1.1556e-05 0)
(9.71279e-05 -1.45408e-05 0)
(9.68751e-05 -1.76792e-05 0)
(9.66544e-05 -2.09649e-05 0)
(9.64808e-05 -2.43851e-05 0)
(9.63687e-05 -2.79214e-05 0)
(0.000101596 8.03051e-08 0)
(0.000101374 -2.10851e-06 0)
(0.000101148 -4.4414e-06 0)
(0.000100911 -6.92417e-06 0)
(0.000100662 -9.56407e-06 0)
(0.000100407 -1.23734e-05 0)
(0.00010016 -1.53633e-05 0)
(9.99394e-05 -1.85362e-05 0)
(9.97664e-05 -2.18818e-05 0)
(9.96614e-05 -2.53744e-05 0)
(0.000104567 1.06132e-06 0)
(0.000104372 -9.16395e-07 0)
(0.000104188 -3.03918e-06 0)
(0.000103996 -5.30808e-06 0)
(0.000103786 -7.73235e-06 0)
(0.000103561 -1.03317e-05 0)
(0.000103331 -1.31304e-05 0)
(0.000103115 -1.61484e-05 0)
(0.000102942 -1.93885e-05 0)
(0.000102842 -2.28236e-05 0)
(0.000107312 1.89463e-06 0)
(0.000107158 9.0766e-08 0)
(0.000107033 -1.84146e-06 0)
(0.000106901 -3.89989e-06 0)
(0.000106747 -6.0969e-06 0)
(0.000106568 -8.45831e-06 0)
(0.000106369 -1.10205e-05 0)
(0.000106168 -1.38259e-05 0)
(0.000105997 -1.69093e-05 0)
(0.000105901 -2.02636e-05 0)
(0.000109829 2.64545e-06 0)
(0.000109731 9.41649e-07 0)
(0.000109677 -8.42735e-07 0)
(0.000109615 -2.71185e-06 0)
(0.000109526 -4.68678e-06 0)
(0.000109404 -6.79883e-06 0)
(0.000109252 -9.08975e-06 0)
(0.000109081 -1.16173e-05 0)
(0.000108918 -1.44581e-05 0)
(0.000108827 -1.76745e-05 0)
(0.000112167 3.42188e-06 0)
(0.000112131 1.69234e-06 0)
(0.000112142 -1.23196e-08 0)
(0.000112142 -1.73078e-06 0)
(0.000112113 -3.50661e-06 0)
(0.000112051 -5.37985e-06 0)
(0.000111954 -7.39296e-06 0)
(0.000111827 -9.59997e-06 0)
(0.000111682 -1.20866e-05 0)
(0.000111594 -1.50042e-05 0)
(6.55774e-05 -1.73586e-05 0)
(6.5159e-05 -1.43918e-05 0)
(6.47524e-05 -1.18331e-05 0)
(6.43286e-05 -9.54217e-06 0)
(6.38615e-05 -7.42828e-06 0)
(6.33256e-05 -5.42674e-06 0)
(6.26939e-05 -3.49092e-06 0)
(6.19345e-05 -1.59535e-06 0)
(6.10132e-05 2.30066e-07 0)
(5.99211e-05 1.7655e-06 0)
(6.1947e-05 -1.57682e-05 0)
(6.15476e-05 -1.32411e-05 0)
(6.11783e-05 -1.09949e-05 0)
(6.07935e-05 -8.9532e-06 0)
(6.03643e-05 -7.05278e-06 0)
(5.98683e-05 -5.24689e-06 0)
(5.92865e-05 -3.5112e-06 0)
(5.8607e-05 -1.86215e-06 0)
(5.78342e-05 -3.96928e-07 0)
(5.69964e-05 6.91703e-07 0)
(5.90532e-05 -1.40218e-05 0)
(5.86409e-05 -1.19743e-05 0)
(5.8286e-05 -1.00887e-05 0)
(5.79394e-05 -8.33517e-06 0)
(5.7571e-05 -6.6806e-06 0)
(5.71633e-05 -5.10025e-06 0)
(5.67093e-05 -3.59057e-06 0)
(5.62131e-05 -2.1861e-06 0)
(5.56874e-05 -9.72423e-07 0)
(5.5137e-05 -4.68105e-08 0)
(5.68459e-05 -1.21954e-05 0)
(5.64236e-05 -1.06324e-05 0)
(5.60766e-05 -9.13838e-06 0)
(5.57626e-05 -7.7089e-06 0)
(5.54541e-05 -6.33454e-06 0)
(5.5137e-05 -5.00957e-06 0)
(5.48079e-05 -3.74252e-06 0)
(5.44691e-05 -2.56509e-06 0)
(5.41181e-05 -1.52999e-06 0)
(5.3735e-05 -6.75158e-07 0)
(5.52852e-05 -1.03431e-05 0)
(5.48623e-05 -9.25937e-06 0)
(5.45234e-05 -8.17068e-06 0)
(5.42326e-05 -7.0874e-06 0)
(5.39656e-05 -6.01601e-06 0)
(5.37095e-05 -4.96351e-06 0)
(5.34599e-05 -3.94181e-06 0)
(5.3213e-05 -2.97013e-06 0)
(5.29547e-05 -2.07151e-06 0)
(5.2655e-05 -1.25759e-06 0)
(5.43433e-05 -8.50536e-06 0)
(5.39282e-05 -7.89226e-06 0)
(5.35974e-05 -7.20938e-06 0)
(5.33172e-05 -6.47741e-06 0)
(5.3064e-05 -5.71501e-06 0)
(5.28258e-05 -4.93836e-06 0)
(5.25976e-05 -4.15899e-06 0)
(5.23748e-05 -3.38153e-06 0)
(5.21422e-05 -2.60374e-06 0)
(5.18703e-05 -1.82281e-06 0)
(5.40043e-05 -6.71588e-06 0)
(5.36044e-05 -6.56374e-06 0)
(5.32811e-05 -6.27514e-06 0)
(5.29976e-05 -5.88249e-06 0)
(5.27297e-05 -5.41808e-06 0)
(5.2465e-05 -4.90868e-06 0)
(5.22001e-05 -4.36751e-06 0)
(5.19352e-05 -3.78647e-06 0)
(5.16648e-05 -3.13624e-06 0)
(5.13669e-05 -2.39234e-06 0)
(5.42654e-05 -5.00927e-06 0)
(5.38878e-05 -5.30675e-06 0)
(5.35695e-05 -5.3883e-06 0)
(5.327e-05 -5.30672e-06 0)
(5.29648e-05 -5.11355e-06 0)
(5.26402e-05 -4.85068e-06 0)
(5.2291e-05 -4.53985e-06 0)
(5.19205e-05 -4.16812e-06 0)
(5.15371e-05 -3.67672e-06 0)
(5.11412e-05 -2.9925e-06 0)
(5.51401e-05 -3.42872e-06 0)
(5.47842e-05 -4.15681e-06 0)
(5.44603e-05 -4.5691e-06 0)
(5.41333e-05 -4.75739e-06 0)
(5.37818e-05 -4.79782e-06 0)
(5.33892e-05 -4.74993e-06 0)
(5.29418e-05 -4.6509e-06 0)
(5.24319e-05 -4.50091e-06 0)
(5.18661e-05 -4.228e-06 0)
(5.12674e-05 -3.67845e-06 0)
(5.66567e-05 -2.03533e-06 0)
(5.62873e-05 -3.14392e-06 0)
(5.59304e-05 -3.83235e-06 0)
(5.55675e-05 -4.24618e-06 0)
(5.51801e-05 -4.48387e-06 0)
(5.47493e-05 -4.61801e-06 0)
(5.42543e-05 -4.70394e-06 0)
(5.36718e-05 -4.77506e-06 0)
(5.2979e-05 -4.81339e-06 0)
(5.21801e-05 -4.63456e-06 0)
(5.50663e-05 1.94668e-06 0)
(4.90994e-05 1.86196e-06 0)
(4.37325e-05 2.42698e-06 0)
(3.8441e-05 2.81821e-06 0)
(3.32419e-05 2.73625e-06 0)
(2.81916e-05 2.22897e-06 0)
(2.33082e-05 1.44859e-06 0)
(1.86043e-05 5.86682e-07 0)
(1.40662e-05 -8.58957e-08 0)
(9.48955e-06 -2.08237e-07 0)
(5.44042e-05 1.93951e-06 0)
(4.89314e-05 2.22916e-06 0)
(4.3606e-05 2.82092e-06 0)
(3.83935e-05 3.20402e-06 0)
(3.32949e-05 3.10963e-06 0)
(2.83245e-05 2.59074e-06 0)
(2.34815e-05 1.79987e-06 0)
(1.8767e-05 9.26537e-07 0)
(1.41715e-05 2.35936e-07 0)
(9.63982e-06 3.20717e-08 0)
(5.34296e-05 1.6562e-06 0)
(4.86279e-05 2.50811e-06 0)
(4.34489e-05 3.20761e-06 0)
(3.83307e-05 3.58859e-06 0)
(3.3331e-05 3.47901e-06 0)
(2.84388e-05 2.94929e-06 0)
(2.3636e-05 2.15121e-06 0)
(1.89162e-05 1.26686e-06 0)
(1.42935e-05 5.37629e-07 0)
(9.85682e-06 1.99475e-07 0)
(5.24487e-05 1.26541e-06 0)
(4.82275e-05 2.7039e-06 0)
(4.3252e-05 3.57914e-06 0)
(3.82511e-05 3.96988e-06 0)
(3.33548e-05 3.84416e-06 0)
(2.85412e-05 3.30456e-06 0)
(2.37799e-05 2.50213e-06 0)
(1.90612e-05 1.60564e-06 0)
(1.44259e-05 8.20331e-07 0)
(1.00583e-05 3.39415e-07 0)
(5.15898e-05 8.31347e-07 0)
(4.77738e-05 2.84145e-06 0)
(4.30149e-05 3.93327e-06 0)
(3.81552e-05 4.34495e-06 0)
(3.33705e-05 4.20396e-06 0)
(2.86371e-05 3.65605e-06 0)
(2.39196e-05 2.85185e-06 0)
(1.92077e-05 1.94259e-06 0)
(1.45607e-05 1.09067e-06 0)
(1.02124e-05 4.68419e-07 0)
(5.08907e-05 3.86112e-07 0)
(4.72922e-05 2.95122e-06 0)
(4.27403e-05 4.27208e-06 0)
(3.80454e-05 4.71086e-06 0)
(3.33827e-05 4.55702e-06 0)
(2.87319e-05 4.00315e-06 0)
(2.40609e-05 3.19977e-06 0)
(1.93614e-05 2.2789e-06 0)
(1.46956e-05 1.35726e-06 0)
(1.03098e-05 5.92875e-07 0)
(5.03461e-05 -4.55998e-08 0)
(4.67892e-05 3.06372e-06 0)
(4.24356e-05 4.59904e-06 0)
(3.7928e-05 5.06468e-06 0)
(3.33966e-05 4.90173e-06 0)
(2.88302e-05 4.34512e-06 0)
(2.42081e-05 3.54519e-06 0)
(1.95262e-05 2.61619e-06 0)
(1.48341e-05 1.62928e-06 0)
(1.03503e-05 7.1687e-07 0)
(4.99035e-05 -4.35941e-07 0)
(4.62485e-05 3.20629e-06 0)
(4.2109e-05 4.91606e-06 0)
(3.78112e-05 5.40362e-06 0)
(3.34183e-05 5.23678e-06 0)
(2.89371e-05 4.68142e-06 0)
(2.43655e-05 3.88752e-06 0)
(1.97071e-05 2.9558e-06 0)
(1.4988e-05 1.91643e-06 0)
(1.03441e-05 8.47492e-07 0)
(4.94366e-05 -7.33478e-07 0)
(4.56432e-05 3.39824e-06 0)
(4.17752e-05 5.22094e-06 0)
(3.77069e-05 5.72524e-06 0)
(3.34546e-05 5.56138e-06 0)
(2.90569e-05 5.01174e-06 0)
(2.4536e-05 4.2261e-06 0)
(1.99069e-05 3.29765e-06 0)
(1.51743e-05 2.2275e-06 0)
(1.03255e-05 1.00409e-06 0)
(4.86668e-05 -8.05876e-07 0)
(4.49515e-05 3.63874e-06 0)
(4.14566e-05 5.50624e-06 0)
(3.76297e-05 6.02803e-06 0)
(3.35131e-05 5.87567e-06 0)
(2.91947e-05 5.33628e-06 0)
(2.47223e-05 4.56048e-06 0)
(2.01273e-05 3.63973e-06 0)
(1.54114e-05 2.56623e-06 0)
(1.03898e-05 1.24468e-06 0)
(1.0498e-05 -5.88348e-05 0)
(1.05009e-05 -5.97473e-05 0)
(1.05561e-05 -6.07393e-05 0)
(1.07017e-05 -6.1776e-05 0)
(1.09605e-05 -6.27979e-05 0)
(1.13413e-05 -6.37364e-05 0)
(1.18407e-05 -6.4523e-05 0)
(1.24451e-05 -6.50947e-05 0)
(1.31321e-05 -6.53972e-05 0)
(1.38719e-05 -6.5388e-05 0)
(1.1238e-05 -5.88299e-05 0)
(1.1249e-05 -5.97425e-05 0)
(1.13071e-05 -6.07558e-05 0)
(1.14321e-05 -6.18206e-05 0)
(1.16346e-05 -6.28723e-05 0)
(1.19178e-05 -6.38401e-05 0)
(1.22787e-05 -6.46536e-05 0)
(1.27073e-05 -6.52474e-05 0)
(1.31878e-05 -6.55655e-05 0)
(1.36991e-05 -6.55641e-05 0)
(1.19229e-05 -5.87902e-05 0)
(1.19149e-05 -5.97047e-05 0)
(1.19467e-05 -6.07452e-05 0)
(1.20297e-05 -6.18424e-05 0)
(1.21669e-05 -6.29259e-05 0)
(1.23569e-05 -6.39231e-05 0)
(1.2596e-05 -6.47627e-05 0)
(1.2877e-05 -6.53779e-05 0)
(1.31883e-05 -6.57103e-05 0)
(1.3514e-05 -6.57143e-05 0)
(1.25667e-05 -5.8689e-05 0)
(1.25316e-05 -5.96199e-05 0)
(1.25285e-05 -6.06982e-05 0)
(1.25627e-05 -6.18367e-05 0)
(1.2632e-05 -6.29588e-05 0)
(1.27322e-05 -6.39909e-05 0)
(1.28593e-05 -6.48617e-05 0)
(1.30084e-05 -6.55028e-05 0)
(1.31718e-05 -6.58522e-05 0)
(1.33357e-05 -6.58601e-05 0)
(1.32055e-05 -5.85086e-05 0)
(1.31413e-05 -5.94818e-05 0)
(1.31035e-05 -6.06131e-05 0)
(1.30898e-05 -6.18039e-05 0)
(1.3093e-05 -6.29729e-05 0)
(1.31061e-05 -6.40473e-05 0)
(1.31251e-05 -6.49568e-05 0)
(1.31484e-05 -6.56317e-05 0)
(1.31724e-05 -6.6004e-05 0)
(1.31854e-05 -6.60154e-05 0)
(1.38845e-05 -5.82402e-05 0)
(1.3792e-05 -5.92887e-05 0)
(1.37236e-05 -6.04927e-05 0)
(1.36673e-05 -6.17477e-05 0)
(1.3609e-05 -6.29714e-05 0)
(1.35375e-05 -6.40941e-05 0)
(1.34483e-05 -6.50498e-05 0)
(1.33432e-05 -6.57687e-05 0)
(1.32248e-05 -6.61737e-05 0)
(1.30857e-05 -6.61902e-05 0)
(1.46505e-05 -5.78827e-05 0)
(1.45329e-05 -5.90434e-05 0)
(1.44413e-05 -6.03434e-05 0)
(1.43512e-05 -6.16749e-05 0)
(1.42384e-05 -6.29585e-05 0)
(1.40864e-05 -6.41321e-05 0)
(1.38879e-05 -6.51384e-05 0)
(1.36456e-05 -6.59115e-05 0)
(1.33693e-05 -6.63641e-05 0)
(1.30619e-05 -6.63917e-05 0)
(1.55467e-05 -5.74405e-05 0)
(1.54119e-05 -5.87544e-05 0)
(1.53098e-05 -6.01768e-05 0)
(1.51967e-05 -6.15958e-05 0)
(1.50388e-05 -6.29409e-05 0)
(1.48144e-05 -6.41629e-05 0)
(1.4511e-05 -6.52182e-05 0)
(1.41248e-05 -6.60513e-05 0)
(1.36648e-05 -6.65712e-05 0)
(1.31467e-05 -6.66263e-05 0)
(1.66112e-05 -5.69191e-05 0)
(1.64793e-05 -5.84386e-05 0)
(1.63828e-05 -6.00102e-05 0)
(1.62556e-05 -6.15232e-05 0)
(1.60615e-05 -6.29277e-05 0)
(1.5779e-05 -6.41927e-05 0)
(1.53896e-05 -6.52886e-05 0)
(1.48745e-05 -6.61766e-05 0)
(1.42173e-05 -6.67787e-05 0)
(1.34091e-05 -6.68964e-05 0)
(1.78843e-05 -5.63168e-05 0)
(1.77992e-05 -5.81221e-05 0)
(1.77135e-05 -5.986e-05 0)
(1.75679e-05 -6.14641e-05 0)
(1.73421e-05 -6.29254e-05 0)
(1.702e-05 -6.42303e-05 0)
(1.65809e-05 -6.53585e-05 0)
(1.59942e-05 -6.62835e-05 0)
(1.52051e-05 -6.69537e-05 0)
(1.40847e-05 -6.71613e-05 0)
(-8.30334e-07 -7.19645e-06 0)
(6.48866e-07 -7.30895e-06 0)
(1.94902e-06 -7.51425e-06 0)
(3.22503e-06 -7.73705e-06 0)
(4.5119e-06 -7.95828e-06 0)
(5.81853e-06 -8.17494e-06 0)
(7.15112e-06 -8.38945e-06 0)
(8.51614e-06 -8.60685e-06 0)
(9.92351e-06 -8.83477e-06 0)
(1.13887e-05 -9.08435e-06 0)
(-1.24445e-06 -9.24615e-06 0)
(4.79933e-07 -9.23021e-06 0)
(1.98553e-06 -9.31858e-06 0)
(3.40812e-06 -9.46571e-06 0)
(4.81077e-06 -9.63996e-06 0)
(6.22102e-06 -9.82677e-06 0)
(7.65457e-06 -1.00215e-05 0)
(9.12457e-06 -1.02252e-05 0)
(1.06465e-05 -1.04428e-05 0)
(1.2241e-05 -1.06831e-05 0)
(-1.52949e-06 -1.12882e-05 0)
(3.2039e-07 -1.12432e-05 0)
(1.98895e-06 -1.12682e-05 0)
(3.55616e-06 -1.1355e-05 0)
(5.0803e-06 -1.14831e-05 0)
(6.59799e-06 -1.16368e-05 0)
(8.13361e-06 -1.1808e-05 0)
(9.70709e-06 -1.19945e-05 0)
(1.13394e-05 -1.21985e-05 0)
(1.30571e-05 -1.24263e-05 0)
(-1.73074e-06 -1.33458e-05 0)
(2.05097e-07 -1.33071e-05 0)
(1.9957e-06 -1.33117e-05 0)
(3.68819e-06 -1.33651e-05 0)
(5.32764e-06 -1.34596e-05 0)
(6.95075e-06 -1.35848e-05 0)
(8.58649e-06 -1.37335e-05 0)
(1.02599e-05 -1.39021e-05 0)
(1.19969e-05 -1.40911e-05 0)
(1.38292e-05 -1.43046e-05 0)
(-1.86936e-06 -1.5448e-05 0)
(1.39697e-07 -1.54237e-05 0)
(2.0254e-06 -1.54285e-05 0)
(3.82148e-06 -1.54688e-05 0)
(5.56321e-06 -1.55438e-05 0)
(7.28403e-06 -1.56487e-05 0)
(9.01407e-06 -1.57787e-05 0)
(1.07814e-05 -1.5931e-05 0)
(1.26152e-05 -1.61052e-05 0)
(1.4551e-05 -1.63035e-05 0)
(-1.95382e-06 -1.76082e-05 0)
(1.21702e-07 -1.7599e-05 0)
(2.08527e-06 -1.76115e-05 0)
(3.96658e-06 -1.76502e-05 0)
(5.79576e-06 -1.77164e-05 0)
(7.60322e-06 -1.78088e-05 0)
(9.41861e-06 -1.79251e-05 0)
(1.12712e-05 -1.80635e-05 0)
(1.31922e-05 -1.82236e-05 0)
(1.52189e-05 -1.84064e-05 0)
(-1.98705e-06 -1.98283e-05 0)
(1.48145e-07 -1.98337e-05 0)
(2.17692e-06 -1.98563e-05 0)
(4.12851e-06 -1.98988e-05 0)
(6.03091e-06 -1.99629e-05 0)
(7.9126e-06 -2.00486e-05 0)
(9.80239e-06 -2.01553e-05 0)
(1.17297e-05 -2.02823e-05 0)
(1.37266e-05 -2.04293e-05 0)
(1.58308e-05 -2.05966e-05 0)
(-1.96978e-06 -2.21038e-05 0)
(2.17108e-07 -2.21235e-05 0)
(2.30015e-06 -2.2157e-05 0)
(4.30918e-06 -2.22059e-05 0)
(6.2716e-06 -2.22712e-05 0)
(8.2149e-06 -2.23539e-05 0)
(1.01672e-05 -2.24541e-05 0)
(1.21576e-05 -2.25716e-05 0)
(1.42182e-05 -2.27063e-05 0)
(1.63865e-05 -2.28584e-05 0)
(-1.90195e-06 -2.44273e-05 0)
(3.2759e-07 -2.44612e-05 0)
(2.45437e-06 -2.45058e-05 0)
(4.50907e-06 -2.45619e-05 0)
(6.5191e-06 -2.46305e-05 0)
(8.51156e-06 -2.47122e-05 0)
(1.05141e-05 -2.48076e-05 0)
(1.25554e-05 -2.49169e-05 0)
(1.46671e-05 -2.50401e-05 0)
(1.68863e-05 -2.51771e-05 0)
(-1.78323e-06 -2.67896e-05 0)
(4.79131e-07 -2.68377e-05 0)
(2.6391e-06 -2.68935e-05 0)
(4.72808e-06 -2.69573e-05 0)
(6.77378e-06 -2.70298e-05 0)
(8.80315e-06 -2.71115e-05 0)
(1.08435e-05 -2.72032e-05 0)
(1.29233e-05 -2.7305e-05 0)
(1.50736e-05 -2.7417e-05 0)
(1.73308e-05 -2.75392e-05 0)
(-1.61325e-06 -2.91807e-05 0)
(6.71563e-07 -2.9243e-05 0)
(2.85396e-06 -2.93099e-05 0)
(4.96597e-06 -2.93815e-05 0)
(7.03557e-06 -2.94582e-05 0)
(9.08978e-06 -2.95405e-05 0)
(1.11558e-05 -2.96287e-05 0)
(1.32617e-05 -2.97234e-05 0)
(1.54381e-05 -2.98246e-05 0)
(1.77207e-05 -2.9932e-05 0)
(-1.39164e-06 -3.15899e-05 0)
(9.04875e-07 -3.16664e-05 0)
(3.09874e-06 -3.17443e-05 0)
(5.22245e-06 -3.18238e-05 0)
(7.30427e-06 -3.19047e-05 0)