/*--------------------------------*- C++ -*----------------------------------*\
| =========                 |                                                 |
| \\      /  F ield         | OpenFOAM: The Open Source CFD Toolbox           |
|  \\    /   O peration     | Version:  2106                                  |
|   \\  /    A nd           | Website:  www.openfoam.com                      |
|    \\/     M anipulation  |                                                 |
\*---------------------------------------------------------------------------*/
FoamFile
{
    version     2.0;
    format      ascii;
    arch        "LSB;label=32;scalar=64";
    class       volSymmTensorField;
    location    "100";
    object      sigma;
}
// * * * * * * * * * * * * * * * * * * * * * * * * * * * * * * * * * * * * * //

dimensions      [1 -1 -2 0 0 0 0];

internalField   nonuniform List<symmTensor> 
3500
(
(-883146 222489 3.97253e-11 -2.14592e+06 2.58293e-11 -699016)
(-953957 190982 7.56509e-13 -2.71062e+06 1.32545e-10 -845673)
(-1.00808e+06 141876 -4.86373e-11 -3.32671e+06 1.05334e-10 -1.00034e+06)
(-1.03124e+06 104218 2.68156e-13 -3.794e+06 -3.45219e-11 -1.11352e+06)
(-1.04176e+06 75447.5 2.27866e-11 -4.15548e+06 -5.54888e-11 -1.19936e+06)
(-1.04731e+06 52042.9 -9.46573e-12 -4.43821e+06 5.23902e-11 -1.26589e+06)
(-1.05103e+06 31616.4 7.63646e-13 -4.65709e+06 -1.62464e-11 -1.31726e+06)
(-1.05336e+06 13079.9 3.48541e-12 -4.82027e+06 -3.25188e-11 -1.35545e+06)
(-1.05506e+06 -4341.61 -7.36867e-13 -4.93243e+06 3.33249e-11 -1.38173e+06)
(-1.05576e+06 -20938.1 -2.03891e-12 -4.99621e+06 -3.37838e-11 -1.39661e+06)
(-1.05608e+06 -37056.3 -7.72047e-12 -5.01316e+06 -6.59422e-11 -1.40059e+06)
(-1.05549e+06 -52774.7 6.6514e-12 -4.98393e+06 1.61894e-11 -1.39371e+06)
(-1.0546e+06 -68281.2 1.034e-11 -4.90885e+06 3.31557e-11 -1.37618e+06)
(-1.0528e+06 -83581.7 1.38538e-11 -4.78774e+06 6.31862e-11 -1.34782e+06)
(-1.05074e+06 -98785.4 0 -4.62033e+06 0 -1.30871e+06)
(-1.04773e+06 -113882 -3.63412e-11 -4.40601e+06 -5.90804e-11 -1.25856e+06)
(-1.04445e+06 -128936 -8.58131e-13 -4.14418e+06 -9.89915e-11 -1.19737e+06)
(-1.04015e+06 -143935 2.30745e-11 -3.83394e+06 8.04819e-11 -1.12479e+06)
(-1.03555e+06 -158882 2.71018e-19 -3.4745e+06 2.48373e-19 -1.04078e+06)
(-1.02992e+06 -173708 -2.24179e-13 -3.06495e+06 6.48216e-11 -944972)
(-1.02403e+06 -188244 -5.64618e-11 -2.6049e+06 -1.02057e-10 -837445)
(-1.01728e+06 -202195 8.10047e-13 -2.09456e+06 -7.22792e-11 -718115)
(-1.01059e+06 -214987 -4.01088e-19 -1.53583e+06 2.45431e-19 -587635)
(-1.00367e+06 -225869 4.53899e-12 -932980 -2.30246e-10 -446919)
(-997712 -233797 3.21349e-11 -293892 -3.91419e-14 -298062)
(-992566 -238032 6.65649e-11 369842 -8.72581e-11 -143706)
(-988481 -238655 6.34811e-11 1.04459e+06 -1.93649e-11 12949.1)
(-981082 -238659 -6.52189e-11 1.71889e+06 1.04006e-10 170264)
(-955678 -244142 -3.01501e-11 2.39678e+06 1.93736e-11 332561)
(-881128 -259902 1.3409e-11 3.04048e+06 -1.43876e-10 498311)
(-637030 909124 -5.82873e-11 -2.16571e+06 1.42557e-11 -646785)
(-714755 778701 1.58386e-13 -2.35421e+06 1.0396e-10 -708223)
(-814413 643243 4.95564e-11 -2.65497e+06 4.67776e-11 -800627)
(-867670 519133 4.28432e-11 -2.94692e+06 -7.60593e-11 -880290)
(-894785 412290 4.11703e-13 -3.20332e+06 -2.37837e-11 -945716)
(-908965 320559 -7.19615e-13 -3.41565e+06 1.86916e-11 -997987)
(-917642 239204 1.98344e-11 -3.58441e+06 -2.38903e-11 -1.03893e+06)
(-922747 164769 0 -3.71172e+06 0 -1.06949e+06)
(-926479 94522.9 -4.86611e-12 -3.80005e+06 2.69474e-11 -1.09074e+06)
(-928432 27004.6 1.09475e-11 -3.85065e+06 5.61221e-11 -1.10287e+06)
(-930125 -39060.8 -2.85178e-12 -3.8648e+06 -2.13189e-11 -1.10652e+06)
(-930640 -104239 -4.28521e-11 -3.84268e+06 -5.14537e-11 -1.10154e+06)
(-931404 -169171 -3.21966e-11 -3.78486e+06 -7.09272e-11 -1.08837e+06)
(-931227 -234067 3.88406e-11 -3.69097e+06 5.33559e-11 -1.06666e+06)
(-931522 -299284 4.64736e-11 -3.56125e+06 5.81486e-11 -1.03679e+06)
(-930933 -364916 0 -3.39507e+06 0 -998309)
(-930908 -431174 -6.08111e-11 -3.19251e+06 -1.11267e-10 -951557)
(-930058 -498087 -6.75885e-11 -2.95282e+06 3.06197e-11 -896048)
(-929978 -565643 -7.90664e-13 -2.67607e+06 5.42925e-11 -832166)
(-929493 -633582 8.07905e-11 -2.36166e+06 -4.31198e-11 -759497)
(-930601 -701226 -7.86897e-19 -2.00998e+06 -2.35112e-19 -678596)
(-932727 -767323 -8.88217e-11 -1.62109e+06 -9.6834e-12 -589342)
(-938560 -829605 1.84495e-10 -1.19652e+06 1.32111e-11 -492710)
(-948192 -884906 1.35573e-11 -738079 -2.01676e-10 -389139)
(-964217 -929047 -8.48978e-11 -249781 -1.34967e-10 -280154)
(-984899 -958353 1.85492e-10 263440 5.91654e-11 -166491)
(-1.00644e+06 -970985 -1.54779e-11 793831 1.32156e-10 -49064.3)
(-1.0117e+06 -969451 -2.02962e-10 1.33058e+06 1.51944e-10 73587.8)
(-964594 -955994 1.78696e-10 1.84981e+06 -3.0888e-11 204281)
(-804980 -923912 6.09228e-11 2.29872e+06 -6.90682e-11 344708)
(-535062 1.13757e+06 -1.1636e-10 -1.92991e+06 -6.28724e-12 -568839)
(-559901 1.03421e+06 -1.0826e-10 -2.0094e+06 -3.36737e-11 -592917)
(-650734 901666 9.80405e-11 -2.124e+06 -8.32809e-11 -640324)
(-718509 760126 1.27828e-10 -2.26066e+06 -6.87759e-11 -687501)
(-762618 623129 -3.52868e-11 -2.40123e+06 3.62282e-11 -730120)
(-790326 495923 -5.60905e-11 -2.5298e+06 1.70514e-11 -766184)
(-808190 378118 2.0144e-11 -2.63833e+06 -6.14986e-12 -795350)
(-819682 267608 -3.65139e-19 -2.7233e+06 5.48024e-19 -817612)
(-827303 162052 -4.83144e-14 -2.78357e+06 5.17293e-13 -833279)
(-832014 59700.3 1.25503e-19 -2.81863e+06 4.92585e-19 -842456)
(-835073 -40823.8 1.49453e-19 -2.82842e+06 2.62298e-19 -845422)
(-836667 -140384 2.15577e-11 -2.81278e+06 3.47542e-11 -842179)
(-837621 -239660 3.79087e-14 -2.77175e+06 -2.18035e-11 -832931)
(-837742 -339051 -7.59394e-11 -2.70515e+06 -3.54311e-11 -817590)
(-837636 -438909 4.59164e-11 -2.61303e+06 1.70507e-11 -796307)
(-836916 -539437 5.35871e-11 -2.49519e+06 1.62016e-11 -768948)
(-836141 -640828 -6.09131e-11 -2.35171e+06 -1.51674e-11 -735659)
(-834959 -743156 -1.34524e-10 -2.1824e+06 -7.42947e-11 -696313)
(-834172 -846378 1.48478e-10 -1.98733e+06 2.5082e-11 -651117)
(-833898 -950179 8.19721e-11 -1.76632e+06 -4.26655e-11 -600049)
(-835752 -1.05377e+06 -2.55782e-10 -1.51935e+06 -2.74767e-11 -543485)
(-841054 -1.15564e+06 2.90536e-12 -1.24603e+06 -5.85533e-11 -481634)
(-852877 -1.25307e+06 2.83188e-10 -946080 -4.5078e-11 -415144)
(-873834 -1.34197e+06 1.82959e-10 -618942 1.26711e-10 -344487)
(-906897 -1.41663e+06 -2.91528e-10 -264891 1.55458e-13 -270413)
(-951095 -1.4704e+06 -2.0083e-10 114039 6.58419e-11 -193167)
(-998981 -1.49655e+06 8.90278e-11 511052 5.28012e-11 -112599)
(-1.02996e+06 -1.48942e+06 -8.40216e-26 910534 1.1425e-25 -27560.6)
(-1.00934e+06 -1.44263e+06 1.791e-10 1.28758e+06 -2.29638e-11 64209.2)
(-905750 -1.34811e+06 1.6897e-11 1.60525e+06 9.53594e-11 161422)
(-469437 1.19422e+06 5.45205e-11 -1.5378e+06 3.49507e-11 -463209)
(-437370 1.11356e+06 5.44365e-11 -1.56562e+06 -6.7428e-11 -462228)
(-495540 1.0009e+06 3.15979e-19 -1.58029e+06 -6.20374e-20 -479037)
(-556436 869012 -8.48317e-11 -1.61081e+06 2.08484e-11 -500135)
(-606488 730047 1.36297e-12 -1.6563e+06 3.74127e-11 -522182)
(-643278 592101 -3.28094e-19 -1.70758e+06 1.25612e-19 -542506)
(-669018 458323 -8.82729e-13 -1.75686e+06 -9.86551e-12 -559817)
(-686422 328958 9.12765e-13 -1.79876e+06 4.97176e-12 -573505)
(-697930 203061 -4.59083e-12 -1.83005e+06 1.18269e-11 -583379)
(-705216 79513.6 3.78809e-12 -1.84872e+06 1.71742e-11 -589370)
(-709675 -42663.6 -1.41143e-11 -1.85365e+06 -1.20135e-12 -591537)
(-712110 -164191 -2.05903e-11 -1.84414e+06 -2.7702e-11 -589904)
(-713257 -285600 -4.16805e-19 -1.81984e+06 -4.62921e-19 -584560)
(-713392 -407252 1.11452e-12 -1.78051e+06 -2.62449e-11 -575516)
(-712877 -529415 4.73189e-11 -1.72614e+06 -2.02334e-11 -562850)
(-711726 -652283 0 -1.65673e+06 0 -546566)
(-710201 -776002 0 -1.5724e+06 0 -526754)
(-708388 -900657 -6.81486e-11 -1.47325e+06 -9.10194e-12 -503455)
(-706881 -1.02624e+06 5.57868e-12 -1.35941e+06 -1.43026e-10 -476837)
(-706456 -1.15256e+06 7.63272e-11 -1.23081e+06 1.08791e-10 -447061)
(-708889 -1.27911e+06 2.38003e-12 -1.0871e+06 -5.31984e-11 -414458)
(-716746 -1.40477e+06 5.45413e-12 -927251 -1.10113e-10 -379384)
(-734143 -1.52742e+06 -9.07989e-11 -749427 -6.00578e-11 -342362)
(-766036 -1.64322e+06 -1.00409e-10 -550689 5.43803e-11 -303859)
(-817548 -1.74585e+06 -4.47212e-12 -327785 5.64119e-11 -264308)
(-890463 -1.82565e+06 1.03971e-10 -78862 -5.67499e-11 -223690)
(-978815 -1.86935e+06 9.74194e-11 192589 -3.51039e-12 -181437)
(-1.06337e+06 -1.86121e+06 -7.9606e-11 474674 -9.7046e-11 -135852)
(-1.11352e+06 -1.78637e+06 9.19238e-19 744711 -7.95445e-20 -85109.3)
(-1.10196e+06 -1.63981e+06 8.37202e-12 974724 4.36662e-11 -29362.7)
(-410070 1.16981e+06 5.9297e-11 -1.04763e+06 2.4971e-11 -336392)
(-334667 1.09545e+06 -5.36905e-11 -1.03716e+06 3.54216e-11 -316576)
(-360603 996967 7.98538e-13 -987975 5.09357e-11 -311210)
(-405033 880321 4.27611e-11 -945884 1.59962e-11 -311750)
(-450928 752497 -3.50998e-11 -919705 5.66322e-12 -316300)
(-489505 619786 2.90467e-11 -907540 8.34208e-12 -322395)
(-518649 485911 -2.6991e-19 -905037 1.24535e-19 -328543)
(-539202 352435 -1.65961e-12 -907669 -4.51945e-12 -333893)
(-553007 219718 5.48799e-12 -911831 -1.03301e-11 -338040)
(-561800 87590.1 1.78654e-12 -914951 -5.51734e-12 -340789)
(-567100 -44243.6 2.45704e-11 -915370 2.14096e-11 -342109)
(-569946 -176076 4.87676e-11 -912047 -3.66223e-11 -341998)
(-571155 -308123 -1.86436e-12 -904420 2.08331e-11 -340517)
(-571157 -440557 -3.44111e-11 -892207 -5.67361e-11 -337699)
(-570313 -573492 0 -875371 0 -333619)
(-568740 -707028 1.94341e-12 -853993 -3.50142e-11 -328323)
(-566660 -841238 -6.32937e-11 -828295 3.44569e-11 -321913)
(-564261 -976201 6.82937e-11 -798512 4.54279e-12 -314486)
(-562134 -1.11198e+06 2.06856e-12 -764884 -4.64378e-11 -306235)
(-561239 -1.24864e+06 -8.07329e-11 -727437 -4.03621e-12 -297387)
(-563524 -1.38618e+06 8.60492e-11 -685802 3.73067e-12 -288306)
(-572105 -1.5244e+06 0 -638727 0 -279423)
(-592053 -1.66252e+06 2.5928e-12 -583586 -5.44948e-11 -271301)
(-630443 -1.79831e+06 2.9582e-12 -515670 -5.48081e-11 -264488)
(-696189 -1.92646e+06 -9.9245e-11 -428041 -1.58242e-12 -259438)
(-797416 -2.03609e+06 -8.6695e-11 -312599 -1.59699e-10 -256157)
(-936233 -2.10831e+06 1.9766e-10 -163730 -1.69139e-12 -253837)
(-1.10046e+06 -2.11658e+06 -1.76604e-18 14918.7 -1.48243e-19 -250510)
(-1.25749e+06 -2.0342e+06 -9.92235e-11 207517 4.97263e-11 -242302)
(-1.36344e+06 -1.85288e+06 7.4959e-11 380385 3.68191e-11 -226858)
(-344170 1.08777e+06 5.55597e-11 -493114 1.16713e-11 -193219)
(-238122 1.01008e+06 6.5248e-13 -443964 2.9969e-11 -157405)
(-242394 919770 -1.74057e-12 -341443 -5.2815e-11 -134732)
(-272128 818701 -3.39238e-20 -242727 9.49463e-22 -118813)
(-309759 708167 -3.25066e-12 -161239 -3.6834e-11 -108692)
(-344488 590533 0 -98821 0 -102302)
(-372087 467994 3.93425e-11 -53680.5 8.36685e-13 -98254)
(-392184 342272 1.40921e-11 -22778.5 5.22495e-12 -95760.5)
(-405822 214466 -1.05182e-11 -3150.05 -2.56865e-12 -94378.2)
(-414583 85284.1 1.00096e-11 7478.96 -1.20225e-11 -93947.1)
(-419755 -44894.9 1.58596e-11 10724.3 -1.16551e-11 -94391.6)
(-422507 -175814 -1.8994e-11 7550.41 -1.48221e-11 -95759.3)
(-423512 -307345 -3.26049e-11 -1458.22 2.17542e-11 -98069.9)
(-423370 -439378 3.81776e-11 -16102.6 -8.00709e-13 -101417)
(-422280 -571864 3.90313e-19 -36336.3 -2.01232e-20 -105835)
(-420530 -704754 -5.39025e-11 -62349.9 4.60671e-13 -111434)
(-418155 -838047 -5.88626e-11 -94372.5 -3.90121e-11 -118276)
(-415498 -971773 7.05973e-11 -132788 -4.30229e-11 -126527)
(-412906 -1.10607e+06 -2.2356e-12 -177908 4.65074e-11 -136342)
(-411420 -1.24121e+06 -2.62593e-20 -230030 2.2713e-19 -148027)
(-412653 -1.37772e+06 0 -289052 0 -161932)
(-419773 -1.51645e+06 9.07533e-11 -354245 1.64833e-12 -178620)
(-437822 -1.65843e+06 1.93267e-12 -423356 -5.47575e-11 -198734)
(-475275 -1.80424e+06 -1.95693e-10 -491541 -5.03866e-12 -223111)
(-544771 -1.95218e+06 2.00083e-10 -549526 5.57488e-12 -252530)
(-663627 -2.0944e+06 1.04105e-10 -582236 -5.04192e-11 -287507)
(-849437 -2.2111e+06 -2.05301e-10 -570115 4.62951e-11 -327589)
(-1.10741e+06 -2.26618e+06 -2.01892e-10 -496944 4.53612e-11 -370236)
(-1.40836e+06 -2.21266e+06 -8.48313e-11 -368330 -4.38512e-11 -410006)
(-1.67628e+06 -2.02119e+06 1.434e-10 -227831 3.73024e-11 -439411)
(-263409 948832 5.43834e-11 109257 -1.92214e-11 -35573.6)
(-141594 863796 5.36902e-11 206412 1.79688e-12 14958.1)
(-139860 781977 4.60022e-11 363246 -2.53859e-11 51550.6)
(-161881 699234 3.91013e-11 511730 -2.00168e-11 80734.3)
(-191032 610710 -3.89568e-11 637929 -4.41861e-11 103130)
(-218577 514739 -2.696e-11 740369 -5.81855e-12 120414)
(-240696 411612 -1.93689e-11 820254 -6.44319e-12 133744)
(-257164 302858 9.71821e-12 879337 1.498e-11 143578)
(-268236 189857 6.7512e-12 919529 7.05092e-12 150298)
(-275503 73989.9 4.90259e-12 942114 -7.39835e-12 153833)
(-279531 -43925.7 9.74937e-12 948224 3.25613e-12 154314)
(-281782 -163117 -1.05074e-11 938297 4.79532e-11 151504)
(-282287 -283232 -2.99238e-11 912806 7.20146e-12 145505)
(-282117 -403858 -3.38022e-12 871650 2.62809e-11 136046)
(-280839 -524860 3.26651e-12 814949 -3.11872e-11 123256)
(-279313 -646002 5.06361e-11 742306 2.98924e-11 106845)
(-276896 -767252 -4.65901e-19 653648 5.97033e-20 86942.8)
(-274514 -888528 -7.07878e-11 548385 4.88058e-11 63201)
(-271692 -1.00999e+06 -7.45313e-11 426303 3.66617e-12 35679.4)
(-269895 -1.13197e+06 -2.21302e-12 286685 5.10081e-11 3874.71)
(-269557 -1.25531e+06 8.58243e-11 129310 -1.51738e-12 -32364.6)
(-273813 -1.38153e+06 9.05431e-11 -46298.6 -2.58785e-13 -73872)
(-286016 -1.5132e+06 1.3319e-12 -239391 -5.70047e-11 -121248)
(-314658 -1.65409e+06 -9.68075e-11 -447682 -6.01533e-11 -175925)
(-372897 -1.80825e+06 -2.23514e-25 -663556 1.33287e-25 -239181)
(-486072 -1.97661e+06 -2.09884e-10 -870005 2.13615e-10 -312941)
(-691135 -2.14829e+06 2.36892e-12 -1.03387e+06 -5.35336e-11 -398079)
(-1.03054e+06 -2.28691e+06 1.97221e-10 -1.10872e+06 6.13725e-11 -493676)
(-1.50729e+06 -2.32145e+06 -7.38737e-11 -1.05792e+06 -1.40012e-10 -591972)
(-2.02033e+06 -2.17169e+06 -7.05424e-12 -924651 -4.1048e-11 -679610)
(-159653 740789 -6.2302e-11 765578 -4.54711e-11 139829)
(-50188.3 653914 -2.69272e-19 924982 -3.41741e-20 201876)
(-59914.2 589293 4.70552e-11 1.13697e+06 8.33821e-12 248552)
(-79117.9 530988 3.75462e-11 1.32762e+06 -1.65539e-11 288116)
(-100066 469036 -3.03006e-11 1.48959e+06 1.04727e-11 320659)
(-118042 399049 -5.68556e-11 1.62503e+06 -4.03868e-11 347767)
(-132961 321194 -1.49844e-11 1.7345e+06 -1.5984e-12 369585)
(-143306 236528 -4.28388e-12 1.81878e+06 -5.86547e-12 386647)
(-151003 147015 4.44145e-12 1.87759e+06 3.93857e-13 398443)
(-155162 53870.1 -9.5114e-12 1.91154e+06 1.92973e-11 405318)
(-158228 -41490 -2.19732e-11 1.9201e+06 1.7652e-11 406586)
(-158955 -138449 -9.07962e-12 1.90381e+06 3.2686e-11 402659)
(-159729 -236195 2.53548e-11 1.86194e+06 8.07761e-12 392819)
(-158778 -334500 7.15402e-11 1.79502e+06 6.61166e-13 377594)
(-158410 -432898 -4.16028e-12 1.70218e+06 3.24936e-11 356254)
(-156488 -531309 -1.03063e-10 1.58394e+06 -1.39363e-11 329412)
(-155352 -629454 -7.17498e-11 1.43935e+06 1.37288e-10 296307)
(-152730 -727333 6.76904e-11 1.26886e+06 -9.49143e-12 257569)
(-151161 -824916 -5.87688e-12 1.07134e+06 1.00991e-10 212350)
(-148581 -922513 7.76284e-19 847030 -6.24565e-20 161181)
(-148084 -1.02084e+06 8.53214e-11 594353 -4.6117e-12 102985)
(-148507 -1.12141e+06 1.81549e-10 312921 -6.45651e-11 37941.7)
(-154696 -1.22727e+06 9.31254e-11 322.834 6.08576e-11 -35624.6)
(-169121 -1.34378e+06 -2.92597e-10 -344431 -6.36106e-12 -118512)
(-204776 -1.48009e+06 -3.01095e-10 -722180 4.82241e-11 -213913)
(-282877 -1.64856e+06 2.05014e-10 -1.12477e+06 -4.67657e-11 -324841)
(-455455 -1.8591e+06 1.04196e-10 -1.52461e+06 -1.09392e-10 -456937)
(-808188 -2.09754e+06 1.36328e-18 -1.84906e+06 1.40885e-19 -613212)
(-1.44426e+06 -2.29066e+06 9.5747e-11 -1.98165e+06 6.11616e-11 -790595)
(-2.32673e+06 -2.29472e+06 -9.24801e-11 -1.86676e+06 -8.43777e-12 -967727)
(-29720.9 450769 -6.29605e-11 1.54838e+06 -5.55353e-11 350460)
(13584.5 382337 -2.51165e-19 1.74677e+06 -4.12886e-20 406235)
(-12247.7 347368 9.27694e-11 1.99141e+06 2.88072e-11 456729)
(-27348.2 318622 8.57867e-12 2.20823e+06 5.84748e-11 503280)
(-38436 284758 -3.32042e-11 2.39905e+06 -1.74033e-11 544756)
(-47630.4 243364 -2.61326e-11 2.5647e+06 -1.86192e-11 580862)
(-54515.3 195124 -1.87202e-11 2.7036e+06 -1.96369e-11 611328)
(-59808.9 141416 -1.12394e-11 2.81319e+06 -1.43897e-11 635395)
(-63074.7 83717.5 -2.72739e-12 2.8918e+06 1.97327e-11 652783)
(-65387.1 23227.8 -6.71503e-12 2.93764e+06 -1.18863e-11 662826)
(-66354.5 -39037.2 -1.74118e-19 2.94994e+06 2.80192e-19 665443)
(-67049.1 -102412 -4.29933e-11 2.92762e+06 4.25627e-11 660131)
(-66882.8 -166346 0 2.87051e+06 0 646990)
(-66811.7 -230537 -7.25724e-21 2.7779e+06 -1.5841e-20 625635)
(-66077.1 -294680 8.03953e-11 2.64996e+06 3.03885e-11 596280)
(-65555.4 -358634 -5.31204e-11 2.48616e+06 1.8091e-11 558601)
(-64411.8 -422189 -6.03472e-11 2.28684e+06 1.66495e-11 512868)
(-63507.6 -485281 4.22187e-12 2.05153e+06 -5.00037e-11 458775)
(-62046.6 -547813 -7.35146e-11 1.78057e+06 1.29894e-11 396583)
(-60972.2 -609927 1.58669e-10 1.47334e+06 -2.15378e-11 325930)
(-59683.5 -671939 1.69154e-10 1.12971e+06 -1.65705e-11 246928)
(-59412.8 -734805 -1.76496e-12 748104 6.49538e-11 158929)
(-60131.5 -800435 -9.41992e-11 326472 6.9832e-11 61463.2)
(-64354.1 -873076 -9.70473e-11 -140376 2.06464e-10 -47245.5)
(-75901.3 -961407 9.80419e-11 -660547 -1.35812e-10 -169950)
(-108966 -1.0827e+06 9.89228e-11 -1.24703e+06 -1.32306e-10 -312922)
(-201387 -1.26539e+06 -1.02569e-10 -1.90849e+06 5.65291e-11 -486894)
(-454150 -1.53883e+06 -1.11536e-10 -2.62078e+06 -1.53194e-10 -709599)
(-1.07661e+06 -1.88156e+06 -1.08494e-10 -3.23926e+06 4.14093e-11 -995972)
(-2.31513e+06 -2.15724e+06 -8.03398e-12 -3.41031e+06 5.18638e-11 -1.32126e+06)
(62951.9 54184.4 -3.00733e-12 2.66987e+06 -8.51781e-12 630651)
(70703.6 55715.6 -1.70661e-11 2.69848e+06 -1.93287e-11 639042)
(56069.4 55071.1 -1.50237e-11 2.92363e+06 -2.09859e-11 687624)
(52608.1 50628.8 1.8629e-11 3.15894e+06 1.21936e-10 741126)
(52636.6 42671.5 8.60509e-12 3.38341e+06 -3.1715e-12 792934)
(52835.7 32517.9 -1.43969e-11 3.58692e+06 -2.99459e-11 839944)
(54027.6 20405.2 5.80214e-12 3.76231e+06 2.70452e-11 880693)
(54482.6 7150.94 8.65182e-13 3.90341e+06 1.89247e-11 913360)
(55648.4 -7180.58 -2.41781e-12 4.00636e+06 -2.59923e-12 937387)
(55613.4 -21944.5 0 4.0677e+06 0 951533)
(56154.4 -37169.5 -4.92243e-12 4.08591e+06 2.16376e-11 955860)
(55191.7 -52393.7 0 4.0592e+06 0 949476)
(54795.7 -67718.1 1.03449e-11 3.9874e+06 -2.86686e-11 932815)
(52732.9 -82827.1 2.32464e-12 3.86953e+06 -3.08875e-11 905138)
(51298.3 -97831.2 1.30601e-19 3.70604e+06 -2.06631e-19 867077)
(48125.6 -112515 -2.09512e-12 3.49633e+06 4.35145e-11 817951)
(45668 -126952 1.93794e-12 3.24123e+06 -4.94234e-11 758514)
(41468 -141008 2.2788e-11 2.94041e+06 -2.11387e-11 688126)
(38077.1 -154713 -2.17954e-11 2.595e+06 -1.01651e-10 607633)
(32999.4 -168035 2.18968e-19 2.20487e+06 -1.29479e-19 516431)
(28846.1 -181014 -2.37726e-19 1.77124e+06 1.06074e-19 415405)
(23153.1 -193821 2.85234e-11 1.29381e+06 1.36286e-10 303914)
(18648.1 -206719 -3.08934e-11 773019 -7.04009e-11 182692)
(13044 -220605 -1.79316e-13 206407 1.57116e-10 50642.4)
(8926.67 -237330 6.61156e-11 -411363 -1.55424e-10 -92869.9)
(2219.84 -262151 -3.34936e-11 -1.09761e+06 7.45985e-11 -252781)
(-14675.6 -307256 3.51789e-11 -1.89629e+06 1.36586e-11 -440993)
(-84390.2 -400092 -1.66768e-12 -2.91561e+06 -8.65179e-11 -692308)
(-330404 -580325 -7.90561e-11 -4.37932e+06 -1.50318e-10 -1.08686e+06)
(-976082 -830090 -7.8534e-12 -6.29768e+06 -8.82633e-12 -1.67856e+06)
(499521 -574688 3.0461e-11 1.20147e+06 -5.07025e-11 392536)
(19183.6 -78559.4 9.78662e-11 1.03323e+06 9.1228e-11 242865)
(-344462 163978 -3.76437e-11 486096 2.34723e-11 32684.7)
(-649066 324742 2.60666e-11 60229 2.73001e-11 -135885)
(-971348 476817 5.437e-11 -291832 8.76859e-13 -291503)
(-1.32521e+06 653707 4.29186e-11 -598341 -6.14856e-11 -443896)
(-1.71913e+06 875573 4.15966e-11 -887203 6.8974e-12 -601462)
(-2.14159e+06 1.16761e+06 3.16064e-11 -1.19782e+06 1.26895e-11 -770633)
(-2.46928e+06 1.58381e+06 6.6789e-11 -1.6635e+06 3.91465e-11 -953719)
(-2.236e+06 2.36758e+06 0 -2.97128e+06 0 -1.20168e+06)
(296887 -354328 1.10083e-11 719666 -4.26562e-11 234589)
(24905.6 -45696.5 -7.06437e-11 963961 -6.6435e-11 228200)
(-283932 245291 4.19943e-11 590032 1.26078e-10 70638.5)
(-548256 471683 -7.43961e-11 186793 -9.11233e-11 -83414.6)
(-817420 661185 -5.64353e-12 -204931 -3.88643e-11 -235927)
(-1.10054e+06 855644 -7.08741e-11 -572787 -3.33607e-11 -386153)
(-1.39223e+06 1.0857e+06 -1.12603e-21 -933678 5.98286e-20 -536748)
(-1.66272e+06 1.37602e+06 -1.51713e-10 -1.32999e+06 -3.90777e-11 -690626)
(-1.8346e+06 1.73937e+06 -7.98804e-20 -1.84313e+06 -3.86356e-20 -848708)
(-1.83947e+06 2.12586e+06 2.2704e-11 -2.59794e+06 -1.34036e-11 -1.02402e+06)
(158103 -227287 2.56068e-11 486904 4.43715e-12 148848)
(-78658.4 -22376.5 -2.25513e-12 744709 -6.16519e-11 153704)
(-333900 243703 4.27517e-11 539283 8.63012e-11 47396.1)
(-556219 494461 4.82239e-11 227748 1.2541e-10 -75801)
(-773099 715023 -4.43089e-11 -135249 -6.72222e-11 -209619)
(-991523 925063 2.65111e-11 -514823 -6.00348e-11 -347618)
(-1.20644e+06 1.14834e+06 1.39566e-11 -905685 7.11159e-11 -487412)
(-1.3975e+06 1.40037e+06 4.78542e-11 -1.32393e+06 4.37229e-11 -628021)
(-1.53425e+06 1.6722e+06 -2.22724e-11 -1.79933e+06 -8.49367e-11 -769288)
(-1.61805e+06 1.89773e+06 3.32896e-12 -2.33022e+06 -1.35191e-11 -911138)
(59164.8 -122478 -2.23876e-11 328444 4.19795e-11 89448.3)
(-157194 27554.1 4.47832e-11 543396 1.02196e-10 89123.5)
(-383716 249793 3.8297e-12 430884 6.01728e-11 10884.9)
(-580595 488077 4.70793e-11 209283 8.4416e-11 -85687.4)
(-764347 715725 3.6713e-11 -96470.3 -2.35106e-11 -198650)
(-940748 932013 -6.00858e-12 -453029 -4.49166e-11 -321641)
(-1.10962e+06 1.14686e+06 4.23907e-11 -842010 1.85136e-11 -450376)
(-1.26279e+06 1.36849e+06 8.54976e-11 -1.25937e+06 2.95852e-11 -582036)
(-1.39115e+06 1.58927e+06 4.97665e-11 -1.71358e+06 4.4408e-11 -716475)
(-1.50516e+06 1.76524e+06 -3.01969e-11 -2.1761e+06 3.20778e-11 -849523)
(-23163.6 -28644.5 7.10486e-12 201970 -4.35331e-11 41262.9)
(-217384 89441.3 4.27203e-11 379486 -3.1546e-11 37408)
(-424759 270464 3.86177e-12 308395 6.43028e-11 -26853.2)
(-606406 480326 5.00366e-11 150954 9.13834e-11 -105104)
(-771865 695982 0 -94118.8 0 -199842)
(-924551 907859 -1.19796e-11 -407429 -1.00125e-10 -307380)
(-1.06723e+06 1.11525e+06 4.51323e-11 -770667 2.143e-11 -424130)
(-1.19853e+06 1.3208e+06 -8.41307e-11 -1.17205e+06 6.45996e-12 -547056)
(-1.31755e+06 1.52027e+06 -3.06171e-26 -1.61407e+06 -1.89052e-25 -676528)
(-1.43954e+06 1.68103e+06 -6.92271e-12 -2.07182e+06 1.939e-11 -810314)
(-96959.3 57304.7 2.33555e-11 92247.1 -4.42989e-11 -1087.44)
(-268153 155480 4.77019e-11 248210 3.82775e-11 -4602.19)
(-458122 303238 -4.38241e-11 196301 3.14345e-11 -60420.2)
(-627228 481888 5.25631e-11 79317.6 9.72064e-11 -126441)
(-781181 675659 -3.60504e-19 -115548 -4.10069e-19 -206937)
(-920664 874340 3.56735e-11 -381769 -8.20965e-11 -300561)
(-1.04797e+06 1.07242e+06 -3.52242e-11 -707692 7.74217e-11 -405152)
(-1.16419e+06 1.26847e+06 1.01688e-10 -1.08292e+06 8.84416e-11 -518562)
(-1.27118e+06 1.45858e+06 4.16469e-11 -1.51077e+06 -2.64443e-11 -641989)
(-1.38922e+06 1.61309e+06 -8.7095e-12 -1.98061e+06 2.2524e-11 -777654)
(-165241 137094 4.72874e-11 -7398.36 -9.0059e-11 -39839.8)
(-314421 221491 -9.99298e-11 139441 -7.80115e-11 -40380)
(-487177 343379 -4.60708e-11 99733 3.32248e-11 -89410)
(-643228 493716 -4.99531e-11 8801.07 -3.52225e-11 -146406)
(-786787 662796 -4.99932e-11 -148264 -3.27392e-11 -215781)
(-916540 843093 -5.60348e-11 -372234 -8.91321e-11 -297409)
(-1.03341e+06 1.02827e+06 -5.62854e-11 -658662 -8.2288e-11 -390479)
(-1.13792e+06 1.21479e+06 9.3874e-11 -1.00202e+06 -4.79793e-12 -493831)
(-1.23158e+06 1.39768e+06 -3.80198e-11 -1.40916e+06 7.70104e-11 -609400)
(-1.33976e+06 1.54651e+06 2.8767e-11 -1.88688e+06 1.85879e-11 -744609)
(-229389 211930 -2.40606e-11 -100395 4.60516e-11 -76103.8)
(-358265 285531 -1.01223e-10 45291.1 -3.36118e-12 -72224.8)
(-514143 386887 5.19514e-11 16855.4 3.81939e-11 -114759)
(-656065 513121 -4.71905e-11 -55105.1 3.33302e-11 -164116)
(-788151 658410 -5.20153e-11 -183805 -3.43188e-11 -224297)
(-908278 818216 -1.18916e-11 -372821 -1.26109e-10 -295638)
(-1.0156e+06 987451 -5.83251e-11 -622360 -8.87888e-11 -377990)
(-1.10947e+06 1.16188e+06 -4.59977e-11 -932025 3.02381e-11 -471114)
(-1.18996e+06 1.33546e+06 -1.10463e-10 -1.31251e+06 -9.91211e-11 -577493)
(-1.28617e+06 1.47627e+06 5.21452e-11 -1.78664e+06 -6.78275e-11 -709111)
(-290143 282790 -4.093e-11 -188702 5.21211e-12 -110503)
(-400474 346965 -5.6717e-11 -39270.2 -1.17636e-10 -101479)
(-540176 431158 1.07512e-10 -55591.5 7.78598e-11 -137485)
(-667487 536881 9.4667e-12 -111540 1.44442e-10 -179775)
(-786749 660565 4.84205e-11 -217735 -3.37066e-11 -231804)
(-895743 799950 -5.97238e-11 -378041 -9.99483e-11 -293950)
(-992965 951409 -5.39726e-11 -595171 -3.11384e-11 -366493)
(-1.0763e+06 1.11105e+06 -5.40673e-11 -872132 -2.84585e-11 -449638)
(-1.14389e+06 1.27244e+06 -1.19542e-20 -1.22216e+06 6.24291e-20 -546013)
(-1.22816e+06 1.40237e+06 -6.43729e-11 -1.68134e+06 1.03682e-11 -671425)
(-348158 350501 1.58427e-19 -273740 1.74725e-19 -143515)
(-441591 405786 -9.10137e-12 -117399 -2.36538e-10 -128998)
(-565951 474813 5.13968e-11 -120341 -3.71067e-11 -158375)
(-678569 562614 6.4751e-11 -161181 1.86885e-10 -193788)
(-784185 666862 1.1606e-10 -248158 1.45411e-10 -238233)
(-880964 786697 1.13505e-18 -384448 1.27568e-18 -292018)
(-966779 919913 4.96294e-11 -573306 -3.381e-11 -355404)
(-1.03896e+06 1.0631e+06 7.3601e-19 -819799 6.66683e-19 -428945)
(-1.09438e+06 1.20986e+06 6.14354e-11 -1.13828e+06 8.96413e-11 -515228)
(-1.16754e+06 1.32671e+06 -1.59048e-11 -1.57437e+06 3.30355e-11 -632750)
(-404013 415896 2.22107e-11 -356656 -3.8753e-12 -175539)
(-482055 462371 -6.34204e-12 -191006 -1.59789e-10 -155322)
(-591986 517305 -6.07653e-11 -179356 -1.18e-10 -178002)
(-690314 588787 4.69411e-12 -205153 7.60198e-11 -206646)
(-781942 675312 1.49773e-20 -274549 7.61825e-21 -243806)
(-865487 776858 1.13638e-10 -389711 7.24188e-11 -289661)
(-939167 892001 -5.76636e-20 -553894 -2.13225e-20 -344553)
(-999831 1.01797e+06 1.14105e-10 -772682 6.47037e-11 -409041)
(-1.04332e+06 1.14884e+06 -2.2884e-20 -1.06009e+06 -1.63727e-21 -485402)
(-1.10635e+06 1.25147e+06 2.65978e-11 -1.46888e+06 -1.20482e-11 -594283)
(-458417 479809 -2.45687e-11 -438617 4.70229e-11 -207008)
(-522473 517250 5.47202e-11 -261478 -3.97823e-11 -180912)
(-618818 558597 -1.19994e-10 -233956 -1.59726e-10 -196794)
(-703264 614717 -5.32063e-11 -244266 3.78724e-11 -218661)
(-780975 684675 -6.30845e-11 -296843 -1.14223e-10 -248727)
(-851142 768893 -5.79745e-11 -392884 -3.72564e-11 -287083)
(-911956 866647 5.24592e-11 -534856 -3.63078e-11 -333880)
(-960623 975482 -5.81956e-11 -728450 -3.39511e-11 -389786)
(-992722 1.08999e+06 -4.79399e-11 -986653 1.05038e-10 -456779)
(-1.04624e+06 1.17822e+06 -2.7001e-11 -1.3671e+06 1.01402e-11 -556925)
(-512073 543154 2.45587e-11 -520782 -4.77603e-11 -238351)
(-563424 571119 1.18123e-10 -329809 8.17291e-11 -206131)
(-646973 598966 -5.47726e-11 -285058 3.93219e-11 -215084)
(-718126 640110 0 -279278 0 -230170)
(-782106 694206 0 -315208 0 -253226)
(-838596 761990 -1.07604e-11 -393101 -1.51309e-10 -284238)
(-886487 842954 5.90152e-11 -514906 3.68658e-11 -323398)
(-923098 935030 -1.07548e-10 -685680 7.45581e-11 -371256)
(-943785 1.03352e+06 5.92699e-11 -916770 3.35955e-11 -429359)
(-988074 1.10782e+06 5.32225e-11 -1.27007e+06 -2.12186e-11 -521110)
(-565835 606891 4.86683e-11 -604435 -5.41642e-11 -270062)
(-605657 624701 5.99101e-11 -396978 4.07091e-11 -231377)
(-677050 638834 6.41069e-11 -333379 1.20905e-10 -233176)
(-735253 665080 -5.9725e-11 -310569 -4.02438e-11 -241344)
(-785752 703626 -5.12759e-12 -329731 -7.82179e-11 -257419)
(-828819 755392 1.14108e-10 -390262 6.61794e-13 -281326)
(-863479 820245 -5.44286e-11 -493111 3.80627e-11 -313059)
(-887763 896212 1.6993e-21 -642915 -1.34483e-20 -353233)
(-897251 979153 5.04052e-11 -849424 -1.12193e-10 -403079)
(-932140 1.04038e+06 7.32851e-11 -1.17797e+06 -6.22222e-11 -486948)
(-620540 672050 2.42436e-11 -690896 -4.64256e-11 -302639)
(-649858 678813 9.99844e-20 -463849 2.38566e-19 -257009)
(-709611 678721 1.3343e-11 -379516 2.41469e-10 -251337)
(-755244 689759 6.52426e-11 -338634 1.20153e-10 -252433)
(-792368 712773 -7.57684e-11 -340586 -2.77072e-10 -261451)
(-821783 748881 -6.5579e-11 -383869 -1.17662e-10 -278227)
(-843299 797966 1.0491e-11 -468901 1.54665e-10 -302815)
(-855219 858313 1.11094e-20 -599444 -7.04984e-20 -335692)
(-853121 926459 -6.97659e-11 -783464 -1.87705e-10 -377673)
(-878141 975579 -3.14253e-11 -1.09024e+06 -2.41179e-11 -454242)
(-677139 739686 2.37684e-11 -781587 -4.76542e-11 -336629)
(-696834 734243 -6.10834e-11 -531414 -3.99303e-11 -283442)
(-745259 719144 -6.672e-19 -424080 -7.94281e-19 -269848)
(-778354 714470 1.26641e-10 -363689 1.60702e-10 -263548)
(-802112 721677 6.59556e-11 -347814 1.19761e-10 -265368)
(-817981 742021 -1.31971e-10 -374046 -2.37834e-10 -275083)
(-825951 775667 -6.07338e-11 -441762 -3.93315e-11 -292549)
(-825083 820903 4.91838e-12 -554245 7.78871e-11 -318306)
(-811225 874746 -6.08963e-11 -717970 -3.74866e-11 -352891)
(-825574 912704 -5.23841e-11 -1.006e+06 1.73731e-11 -422672)
(-736506 810852 2.58125e-11 -877904 -7.79678e-12 -372556)
(-747227 791824 0 -600586 0 -311034)
(-784461 760665 6.12388e-11 -467627 3.98758e-11 -288943)
(-805051 739418 -6.10999e-11 -386175 -4.02366e-11 -274898)
(-815236 730301 1.27299e-10 -351569 1.6037e-10 -269263)
(-817058 734759 5.29269e-12 -360366 7.94934e-11 -271713)
(-811313 752911 -6.09432e-11 -411360 -3.98689e-11 -282155)
(-797352 783227 0 -506919 0 -300986)
(-770975 823317 0 -651899 0 -328356)
(-773657 850921 0 -924092 0 -391788)