/*--------------------------------*- C++ -*----------------------------------*\
| =========                 |                                                 |
| \\      /  F ield         | OpenFOAM: The Open Source CFD Toolbox           |
|  \\    /   O peration     | Version:  2106                                  |
|   \\  /    A nd           | Website:  www.openfoam.com                      |
|    \\/     M anipulation  |                                                 |
\*---------------------------------------------------------------------------*/
FoamFile
{
    version     2.0;
    format      ascii;
    arch        "LSB;label=32;scalar=64";
    class       volVectorField;
    location    "40";
    object      D;
}
// * * * * * * * * * * * * * * * * * * * * * * * * * * * * * * * * * * * * * //

dimensions      [0 1 0 0 0 0 0];

internalField   nonuniform List<vector> 
3500
(
(8.08821e-05 7.19827e-06 0)
(8.31146e-05 6.84924e-06 0)
(8.51924e-05 6.35963e-06 0)
(8.70909e-05 5.75507e-06 0)
(8.8801e-05 5.0555e-06 0)
(9.03121e-05 4.27314e-06 0)
(9.16124e-05 3.42076e-06 0)
(9.26889e-05 2.50774e-06 0)
(9.35316e-05 1.546e-06 0)
(9.41302e-05 5.44797e-07 0)
(9.44789e-05 -4.83969e-07 0)
(9.45714e-05 -1.53088e-06 0)
(9.44063e-05 -2.58403e-06 0)
(9.39814e-05 -3.63369e-06 0)
(9.33e-05 -4.66789e-06 0)
(9.23637e-05 -5.67634e-06 0)
(9.11807e-05 -6.64678e-06 0)
(8.97568e-05 -7.56809e-06 0)
(8.81053e-05 -8.42755e-06 0)
(8.62372e-05 -9.21289e-06 0)
(8.41713e-05 -9.91081e-06 0)
(8.19251e-05 -1.05079e-05 0)
(7.95248e-05 -1.09907e-05 0)
(7.69958e-05 -1.13454e-05 0)
(7.43728e-05 -1.15605e-05 0)
(7.16896e-05 -1.16247e-05 0)
(6.89852e-05 -1.15318e-05 0)
(6.629e-05 -1.12758e-05 0)
(6.3625e-05 -1.08559e-05 0)
(6.09959e-05 -1.02615e-05 0)
(8.07712e-05 5.24969e-06 0)
(8.29829e-05 4.92511e-06 0)
(8.50697e-05 4.53606e-06 0)
(8.69904e-05 4.07305e-06 0)
(8.87247e-05 3.5389e-06 0)
(9.02579e-05 2.9404e-06 0)
(9.15771e-05 2.28649e-06 0)
(9.26697e-05 1.58535e-06 0)
(9.35249e-05 8.45916e-07 0)
(9.41333e-05 7.61755e-08 0)
(9.44882e-05 -7.15081e-07 0)
(9.45843e-05 -1.51989e-06 0)
(9.44192e-05 -2.32946e-06 0)
(9.39917e-05 -3.13565e-06 0)
(9.33039e-05 -3.92955e-06 0)
(9.23586e-05 -4.70269e-06 0)
(9.11624e-05 -5.4459e-06 0)
(8.97227e-05 -6.15021e-06 0)
(8.80511e-05 -6.80607e-06 0)
(8.61598e-05 -7.40391e-06 0)
(8.40662e-05 -7.93372e-06 0)
(8.17891e-05 -8.38529e-06 0)
(7.93528e-05 -8.74834e-06 0)
(7.67845e-05 -9.01238e-06 0)
(7.41174e-05 -9.16748e-06 0)
(7.1387e-05 -9.20397e-06 0)
(6.86323e-05 -9.1139e-06 0)
(6.58891e-05 -8.8911e-06 0)
(6.31905e-05 -8.5347e-06 0)
(6.05745e-05 -8.058e-06 0)
(8.06815e-05 3.5522e-06 0)
(8.28701e-05 3.26945e-06 0)
(8.49485e-05 2.95677e-06 0)
(8.68758e-05 2.60403e-06 0)
(8.86238e-05 2.2068e-06 0)
(9.01723e-05 1.76624e-06 0)
(9.15055e-05 1.28678e-06 0)
(9.261e-05 7.73958e-07 0)
(9.34746e-05 2.33843e-07 0)
(9.40901e-05 -3.27622e-07 0)
(9.44497e-05 -9.04336e-07 0)
(9.45482e-05 -1.49039e-06 0)
(9.4383e-05 -2.07971e-06 0)
(9.39532e-05 -2.66631e-06 0)
(9.32604e-05 -3.24401e-06 0)
(9.23079e-05 -3.80667e-06 0)
(9.11018e-05 -4.34794e-06 0)
(8.965e-05 -4.86143e-06 0)
(8.79631e-05 -5.34052e-06 0)
(8.60542e-05 -5.77847e-06 0)
(8.39394e-05 -6.16828e-06 0)
(8.16378e-05 -6.50263e-06 0)
(7.91727e-05 -6.77381e-06 0)
(7.65713e-05 -6.97352e-06 0)
(7.38657e-05 -7.093e-06 0)
(7.10925e-05 -7.12317e-06 0)
(6.82929e-05 -7.05601e-06 0)
(6.55105e-05 -6.88661e-06 0)
(6.27926e-05 -6.61858e-06 0)
(6.01937e-05 -6.2651e-06 0)
(8.05845e-05 1.97721e-06 0)
(8.27616e-05 1.75964e-06 0)
(8.48317e-05 1.52694e-06 0)
(8.67589e-05 1.27492e-06 0)
(8.8513e-05 9.99748e-07 0)
(9.00702e-05 7.00631e-07 0)
(9.14122e-05 3.79205e-07 0)
(9.25243e-05 3.83666e-08 0)
(9.33951e-05 -3.18448e-07 0)
(9.40152e-05 -6.87701e-07 0)
(9.43777e-05 -1.06583e-06 0)
(9.44776e-05 -1.44929e-06 0)
(9.43122e-05 -1.83455e-06 0)
(9.38807e-05 -2.21806e-06 0)
(9.31846e-05 -2.59623e-06 0)
(9.22274e-05 -2.96546e-06 0)
(9.10149e-05 -3.32209e-06 0)
(8.95551e-05 -3.66243e-06 0)
(8.78583e-05 -3.98273e-06 0)
(8.59375e-05 -4.27907e-06 0)
(8.38083e-05 -4.54738e-06 0)
(8.14892e-05 -4.78313e-06 0)
(7.90023e-05 -4.98117e-06 0)
(7.63738e-05 -5.13528e-06 0)
(7.36346e-05 -5.23796e-06 0)
(7.08217e-05 -5.28051e-06 0)
(6.7979e-05 -5.25417e-06 0)
(6.5158e-05 -5.15305e-06 0)
(6.24168e-05 -4.97699e-06 0)
(5.98191e-05 -4.73709e-06 0)
(8.04699e-05 4.59446e-07 0)
(8.26465e-05 3.20423e-07 0)
(8.47148e-05 1.74652e-07 0)
(8.66424e-05 2.27395e-08 0)
(8.83992e-05 -1.36132e-07 0)
(8.99604e-05 -3.02132e-07 0)
(9.13065e-05 -4.74724e-07 0)
(9.24223e-05 -6.53018e-07 0)
(9.32959e-05 -8.35945e-07 0)
(9.3918e-05 -1.02245e-06 0)
(9.42817e-05 -1.21145e-06 0)
(9.43821e-05 -1.4019e-06 0)
(9.42165e-05 -1.59274e-06 0)
(9.37841e-05 -1.78293e-06 0)
(9.30865e-05 -1.97142e-06 0)
(9.21272e-05 -2.15719e-06 0)
(9.09118e-05 -2.33921e-06 0)
(8.94484e-05 -2.51651e-06 0)
(8.77472e-05 -2.6881e-06 0)
(8.58208e-05 -2.85293e-06 0)
(8.36842e-05 -3.00983e-06 0)
(8.13552e-05 -3.15721e-06 0)
(7.88543e-05 -3.29278e-06 0)
(7.62058e-05 -3.41294e-06 0)
(7.34387e-05 -3.5121e-06 0)
(7.05884e-05 -3.5821e-06 0)
(6.77003e-05 -3.61234e-06 0)
(6.48312e-05 -3.59162e-06 0)
(6.20491e-05 -3.51312e-06 0)
(5.94278e-05 -3.37682e-06 0)
(8.03346e-05 -1.04408e-06 0)
(8.25205e-05 -1.101e-06 0)
(8.45949e-05 -1.15694e-06 0)
(8.65262e-05 -1.20789e-06 0)
(8.8285e-05 -1.25137e-06 0)
(8.98469e-05 -1.28623e-06 0)
(9.1193e-05 -1.31243e-06 0)
(9.23084e-05 -1.33087e-06 0)
(9.31814e-05 -1.3427e-06 0)
(9.3803e-05 -1.34938e-06 0)
(9.41662e-05 -1.35224e-06 0)
(9.42663e-05 -1.35277e-06 0)
(9.41005e-05 -1.35232e-06 0)
(9.36682e-05 -1.35238e-06 0)
(9.29708e-05 -1.35434e-06 0)
(9.20119e-05 -1.35976e-06 0)
(9.07973e-05 -1.37016e-06 0)
(8.93348e-05 -1.38724e-06 0)
(8.76345e-05 -1.41269e-06 0)
(8.57089e-05 -1.4483e-06 0)
(8.35723e-05 -1.4958e-06 0)
(8.12417e-05 -1.55674e-06 0)
(7.8736e-05 -1.63212e-06 0)
(7.6077e-05 -1.72183e-06 0)
(7.329e-05 -1.82351e-06 0)
(7.04068e-05 -1.93102e-06 0)
(6.74692e-05 -2.03241e-06 0)
(6.45356e-05 -2.10949e-06 0)
(6.16836e-05 -2.14072e-06 0)
(5.90045e-05 -2.1142e-06 0)
(8.01802e-05 -2.57573e-06 0)
(8.23847e-05 -2.55231e-06 0)
(8.44727e-05 -2.51999e-06 0)
(8.64107e-05 -2.46935e-06 0)
(8.81701e-05 -2.39493e-06 0)
(8.97292e-05 -2.29489e-06 0)
(9.1071e-05 -2.17073e-06 0)
(9.2182e-05 -2.02527e-06 0)
(9.30512e-05 -1.86229e-06 0)
(9.36697e-05 -1.68547e-06 0)
(9.40309e-05 -1.49879e-06 0)
(9.41298e-05 -1.30595e-06 0)
(9.3964e-05 -1.11089e-06 0)
(9.35326e-05 -9.1734e-07 0)
(9.28372e-05 -7.29307e-07 0)
(9.18812e-05 -5.50648e-07 0)
(9.06707e-05 -3.85533e-07 0)
(8.92133e-05 -2.38066e-07 0)
(8.75193e-05 -1.12657e-07 0)
(8.56007e-05 -1.37222e-08 0)
(8.34718e-05 5.40822e-08 0)
(8.11483e-05 8.61123e-08 0)
(7.86483e-05 7.77546e-08 0)
(7.59907e-05 2.49141e-08 0)
(7.31967e-05 -7.50447e-08 0)
(7.02905e-05 -2.21127e-07 0)
(6.73048e-05 -4.04424e-07 0)
(6.42902e-05 -6.02639e-07 0)
(6.13292e-05 -7.77636e-07 0)
(5.85405e-05 -8.86088e-07 0)
(8.00114e-05 -4.17698e-06 0)
(8.22455e-05 -4.08517e-06 0)
(8.43526e-05 -3.97046e-06 0)
(8.62962e-05 -3.81595e-06 0)
(8.80518e-05 -3.61595e-06 0)
(8.96026e-05 -3.37084e-06 0)
(9.09352e-05 -3.0857e-06 0)
(9.20377e-05 -2.76572e-06 0)
(9.28998e-05 -2.41774e-06 0)
(9.3513e-05 -2.04734e-06 0)
(9.38706e-05 -1.66134e-06 0)
(9.39676e-05 -1.26524e-06 0)
(9.38017e-05 -8.65832e-07 0)
(9.33719e-05 -4.68661e-07 0)
(9.26801e-05 -8.06052e-08 0)
(9.17294e-05 2.92577e-07 0)
(9.05263e-05 6.43855e-07 0)
(8.90779e-05 9.67118e-07 0)
(8.73953e-05 1.2551e-06 0)
(8.54893e-05 1.50121e-06 0)
(8.33753e-05 1.69783e-06 0)
(8.10675e-05 1.83767e-06 0)
(7.85842e-05 1.91256e-06 0)
(7.59417e-05 1.91429e-06 0)
(7.31583e-05 1.83421e-06 0)
(7.02491e-05 1.66488e-06 0)
(6.72321e-05 1.40409e-06 0)
(6.41335e-05 1.06443e-06 0)
(6.10212e-05 6.92411e-07 0)
(5.80419e-05 3.72927e-07 0)
(7.98408e-05 -5.91043e-06 0)
(8.21165e-05 -5.77506e-06 0)
(8.42403e-05 -5.5788e-06 0)
(8.61797e-05 -5.30846e-06 0)
(8.7922e-05 -4.96474e-06 0)
(8.94574e-05 -4.55719e-06 0)
(9.07753e-05 -4.0928e-06 0)
(9.18655e-05 -3.58223e-06 0)
(9.27173e-05 -3.03214e-06 0)
(9.33232e-05 -2.45283e-06 0)
(9.36753e-05 -1.85078e-06 0)
(9.37702e-05 -1.23614e-06 0)
(9.36035e-05 -6.15569e-07 0)
(9.31768e-05 8.31747e-10 0)
(9.24891e-05 6.0607e-07 0)
(9.15468e-05 1.19005e-06 0)
(9.03528e-05 1.74528e-06 0)
(8.89182e-05 2.26168e-06 0)
(8.72499e-05 2.73112e-06 0)
(8.53634e-05 3.14347e-06 0)
(8.32691e-05 3.48975e-06 0)
(8.09862e-05 3.75961e-06 0)
(7.85278e-05 3.94267e-06 0)
(7.59149e-05 4.02754e-06 0)
(7.31596e-05 4.00084e-06 0)
(7.02768e-05 3.84766e-06 0)
(6.72646e-05 3.54911e-06 0)
(6.41185e-05 3.09133e-06 0)
(6.08415e-05 2.47976e-06 0)
(5.75579e-05 1.80252e-06 0)
(7.97094e-05 -7.91361e-06 0)
(8.2016e-05 -7.7492e-06 0)
(8.41305e-05 -7.43906e-06 0)
(8.6047e-05 -7.01461e-06 0)
(8.77648e-05 -6.49701e-06 0)
(8.92778e-05 -5.8988e-06 0)
(9.05768e-05 -5.23229e-06 0)
(9.16506e-05 -4.50667e-06 0)
(9.24901e-05 -3.73327e-06 0)
(9.30857e-05 -2.92122e-06 0)
(9.34319e-05 -2.08195e-06 0)
(9.35225e-05 -1.22487e-06 0)
(9.33565e-05 -3.61501e-07 0)
(9.29315e-05 4.98392e-07 0)
(9.22509e-05 1.3432e-06 0)
(9.13166e-05 2.16277e-06 0)
(9.01364e-05 2.94543e-06 0)
(8.87163e-05 3.68055e-06 0)
(8.70687e-05 4.35642e-06 0)
(8.52033e-05 4.96189e-06 0)
(8.31367e-05 5.48523e-06 0)
(8.0882e-05 5.91462e-06 0)
(7.84589e-05 6.23813e-06 0)
(7.58822e-05 6.44287e-06 0)
(7.31712e-05 6.51579e-06 0)
(7.03348e-05 6.44052e-06 0)
(6.73736e-05 6.19656e-06 0)
(6.42554e-05 5.74674e-06 0)
(6.09108e-05 5.02311e-06 0)
(5.72923e-05 3.89547e-06 0)
(1.93994e-05 -2.55725e-05 0)
(1.92834e-05 -2.69531e-05 0)
(1.91129e-05 -2.81807e-05 0)
(1.89036e-05 -2.92997e-05 0)
(1.86518e-05 -3.03312e-05 0)
(1.83506e-05 -3.12822e-05 0)
(1.79929e-05 -3.21498e-05 0)
(1.75709e-05 -3.29282e-05 0)
(1.70882e-05 -3.36141e-05 0)
(1.66109e-05 -3.42391e-05 0)
(2.09637e-05 -2.44558e-05 0)
(2.08403e-05 -2.59166e-05 0)
(2.0666e-05 -2.72488e-05 0)
(2.04571e-05 -2.84672e-05 0)
(2.02165e-05 -2.95901e-05 0)
(1.99432e-05 -3.06293e-05 0)
(1.96359e-05 -3.15898e-05 0)
(1.92982e-05 -3.2475e-05 0)
(1.89482e-05 -3.32955e-05 0)
(1.86367e-05 -3.40868e-05 0)
(2.26187e-05 -2.33642e-05 0)
(2.24918e-05 -2.48662e-05 0)
(2.23198e-05 -2.62714e-05 0)
(2.2116e-05 -2.75769e-05 0)
(2.18866e-05 -2.87902e-05 0)
(2.16354e-05 -2.99206e-05 0)
(2.13659e-05 -3.09763e-05 0)
(2.10853e-05 -3.19656e-05 0)
(2.08093e-05 -3.29017e-05 0)
(2.05642e-05 -3.38096e-05 0)
(2.43433e-05 -2.22857e-05 0)
(2.42148e-05 -2.38142e-05 0)
(2.40477e-05 -2.52697e-05 0)
(2.38519e-05 -2.66441e-05 0)
(2.36339e-05 -2.79374e-05 0)
(2.33995e-05 -2.91541e-05 0)
(2.31545e-05 -3.03011e-05 0)
(2.29068e-05 -3.13874e-05 0)
(2.26676e-05 -3.24254e-05 0)
(2.24516e-05 -3.34329e-05 0)
(2.6124e-05 -2.12152e-05 0)
(2.59944e-05 -2.27638e-05 0)
(2.58324e-05 -2.42557e-05 0)
(2.56454e-05 -2.56831e-05 0)
(2.54386e-05 -2.70426e-05 0)
(2.52179e-05 -2.8335e-05 0)
(2.49896e-05 -2.95645e-05 0)
(2.4761e-05 -3.07385e-05 0)
(2.4541e-05 -3.18679e-05 0)
(2.43403e-05 -3.29666e-05 0)
(2.79506e-05 -2.01494e-05 0)
(2.78199e-05 -2.17146e-05 0)
(2.76626e-05 -2.32347e-05 0)
(2.7484e-05 -2.47032e-05 0)
(2.72879e-05 -2.61161e-05 0)
(2.70792e-05 -2.7472e-05 0)
(2.68636e-05 -2.87729e-05 0)
(2.6648e-05 -3.00242e-05 0)
(2.64401e-05 -3.12349e-05 0)
(2.62489e-05 -3.2417e-05 0)
(2.98151e-05 -1.90857e-05 0)
(2.96836e-05 -2.06656e-05 0)
(2.95303e-05 -2.22089e-05 0)
(2.93592e-05 -2.37103e-05 0)
(2.91729e-05 -2.51661e-05 0)
(2.89751e-05 -2.65742e-05 0)
(2.87707e-05 -2.79352e-05 0)
(2.85656e-05 -2.92527e-05 0)
(2.83669e-05 -3.05346e-05 0)
(2.81829e-05 -3.1791e-05 0)
(3.17114e-05 -1.80215e-05 0)
(3.15794e-05 -1.96154e-05 0)
(3.14295e-05 -2.11788e-05 0)
(3.1265e-05 -2.27074e-05 0)
(3.10875e-05 -2.41983e-05 0)
(3.08996e-05 -2.56493e-05 0)
(3.07053e-05 -2.70602e-05 0)
(3.05098e-05 -2.84335e-05 0)
(3.03192e-05 -2.97762e-05 0)
(3.01413e-05 -3.10972e-05 0)
(3.36349e-05 -1.69546e-05 0)
(3.35027e-05 -1.85625e-05 0)
(3.33558e-05 -2.01443e-05 0)
(3.3197e-05 -2.16964e-05 0)
(3.30271e-05 -2.32167e-05 0)
(3.28482e-05 -2.47032e-05 0)
(3.26632e-05 -2.61554e-05 0)
(3.24763e-05 -2.75755e-05 0)
(3.22932e-05 -2.89693e-05 0)
(3.21208e-05 -3.03449e-05 0)
(3.55824e-05 -1.58827e-05 0)
(3.545e-05 -1.75053e-05 0)
(3.53058e-05 -1.91046e-05 0)
(3.51518e-05 -2.06779e-05 0)
(3.49886e-05 -2.22236e-05 0)
(3.48175e-05 -2.37402e-05 0)
(3.46408e-05 -2.52271e-05 0)
(3.44618e-05 -2.6686e-05 0)
(3.42854e-05 -2.81225e-05 0)
(3.41179e-05 -2.95436e-05 0)
(3.75515e-05 -1.48035e-05 0)
(3.74193e-05 -1.64418e-05 0)
(3.72773e-05 -1.80587e-05 0)
(3.71273e-05 -1.96519e-05 0)
(3.69697e-05 -2.12204e-05 0)
(3.68052e-05 -2.27631e-05 0)
(3.66357e-05 -2.42796e-05 0)
(3.64636e-05 -2.57712e-05 0)
(3.62931e-05 -2.72433e-05 0)
(3.61297e-05 -2.87021e-05 0)
(3.95411e-05 -1.37148e-05 0)
(3.9409e-05 -1.53702e-05 0)
(3.92688e-05 -1.70051e-05 0)
(3.91221e-05 -1.86177e-05 0)
(3.8969e-05 -2.02075e-05 0)
(3.881e-05 -2.17737e-05 0)
(3.86463e-05 -2.33161e-05 0)
(3.84801e-05 -2.48358e-05 0)
(3.83146e-05 -2.63378e-05 0)
(3.81544e-05 -2.7828e-05 0)
(4.15507e-05 -1.26145e-05 0)
(4.14188e-05 -1.42885e-05 0)
(4.12799e-05 -1.59423e-05 0)
(4.11356e-05 -1.75743e-05 0)
(4.09859e-05 -1.91846e-05 0)
(4.08312e-05 -2.07728e-05 0)
(4.06723e-05 -2.23384e-05 0)
(4.05106e-05 -2.38829e-05 0)
(4.03491e-05 -2.54108e-05 0)
(4.01915e-05 -2.69273e-05 0)
(4.35807e-05 -1.15006e-05 0)
(4.34487e-05 -1.31949e-05 0)
(4.33106e-05 -1.48686e-05 0)
(4.31679e-05 -1.65205e-05 0)
(4.30206e-05 -1.81511e-05 0)
(4.2869e-05 -1.97602e-05 0)
(4.27134e-05 -2.13478e-05 0)
(4.25553e-05 -2.29147e-05 0)
(4.23967e-05 -2.44656e-05 0)
(4.22408e-05 -2.60051e-05 0)
(4.56319e-05 -1.03718e-05 0)
(4.54997e-05 -1.20878e-05 0)
(4.53617e-05 -1.37824e-05 0)
(4.52197e-05 -1.54547e-05 0)
(4.50737e-05 -1.71058e-05 0)
(4.49238e-05 -1.87357e-05 0)
(4.47705e-05 -2.03442e-05 0)
(4.46147e-05 -2.19324e-05 0)
(4.4458e-05 -2.35046e-05 0)
(4.43032e-05 -2.50649e-05 0)
(4.77057e-05 -9.22673e-06 0)
(4.75728e-05 -1.09657e-05 0)
(4.74343e-05 -1.26821e-05 0)
(4.7292e-05 -1.43756e-05 0)
(4.71461e-05 -1.60475e-05 0)
(4.69969e-05 -1.76982e-05 0)
(4.68445e-05 -1.93276e-05 0)
(4.66899e-05 -2.09364e-05 0)
(4.65343e-05 -2.2529e-05 0)
(4.63799e-05 -2.41089e-05 0)
(4.98036e-05 -8.06515e-06 0)
(4.96698e-05 -9.82767e-06 0)
(4.95298e-05 -1.15664e-05 0)
(4.93861e-05 -1.32815e-05 0)
(4.92391e-05 -1.49747e-05 0)
(4.90893e-05 -1.66465e-05 0)
(4.89368e-05 -1.82968e-05 0)
(4.87822e-05 -1.99265e-05 0)
(4.86267e-05 -2.15392e-05 0)
(4.84723e-05 -2.31385e-05 0)
(5.19275e-05 -6.8874e-06 0)
(5.1792e-05 -8.67338e-06 0)
(5.16498e-05 -1.04345e-05 0)
(5.15035e-05 -1.21713e-05 0)
(5.13542e-05 -1.3886e-05 0)
(5.12024e-05 -1.55792e-05 0)
(5.10485e-05 -1.72509e-05 0)
(5.0893e-05 -1.89016e-05 0)
(5.07369e-05 -2.0535e-05 0)
(5.05818e-05 -2.21541e-05 0)
(5.40791e-05 -5.69501e-06 0)
(5.39413e-05 -7.50322e-06 0)
(5.37956e-05 -9.2858e-06 0)
(5.36454e-05 -1.10439e-05 0)
(5.34924e-05 -1.278e-05 0)
(5.33374e-05 -1.44948e-05 0)
(5.3181e-05 -1.61883e-05 0)
(5.30235e-05 -1.78608e-05 0)
(5.2866e-05 -1.95155e-05 0)
(5.27101e-05 -2.11554e-05 0)
(5.62599e-05 -4.49085e-06 0)
(5.61189e-05 -6.31867e-06 0)
(5.59685e-05 -8.12071e-06 0)
(5.58131e-05 -9.89876e-06 0)
(5.56549e-05 -1.16555e-05 0)
(5.54954e-05 -1.33919e-05 0)
(5.53351e-05 -1.51075e-05 0)
(5.51749e-05 -1.68023e-05 0)
(5.50153e-05 -1.84795e-05 0)
(5.48582e-05 -2.01415e-05 0)
(5.84705e-05 -3.2796e-06 0)
(5.83254e-05 -5.1225e-06 0)
(5.81691e-05 -6.94045e-06 0)
(5.80071e-05 -8.73594e-06 0)
(5.78423e-05 -1.0512e-05 0)
(5.76767e-05 -1.22691e-05 0)
(5.75116e-05 -1.40069e-05 0)
(5.73475e-05 -1.57247e-05 0)
(5.71854e-05 -1.74253e-05 0)
(5.7027e-05 -1.9111e-05 0)
(6.07102e-05 -2.06801e-06 0)
(6.05603e-05 -3.91918e-06 0)
(6.03972e-05 -5.74756e-06 0)
(6.02273e-05 -7.5564e-06 0)
(6.00545e-05 -9.34885e-06 0)
(5.98816e-05 -1.11254e-05 0)
(5.97102e-05 -1.2885e-05 0)
(5.95415e-05 -1.46262e-05 0)
(5.93763e-05 -1.63512e-05 0)
(5.92165e-05 -1.80621e-05 0)
(6.29759e-05 -8.65154e-07 0)
(6.28211e-05 -2.71531e-06 0)
(6.26509e-05 -4.54635e-06 0)
(6.24725e-05 -6.36236e-06 0)
(6.22907e-05 -8.16683e-06 0)
(6.21092e-05 -9.96002e-06 0)
(6.19305e-05 -1.17401e-05 0)
(6.17562e-05 -1.35048e-05 0)
(6.15875e-05 -1.52552e-05 0)
(6.14265e-05 -1.69928e-05 0)
(6.52613e-05 3.17771e-07 0)
(6.51023e-05 -1.51988e-06 0)
(6.49263e-05 -3.34356e-06 0)
(6.47401e-05 -5.1581e-06 0)
(6.45492e-05 -6.96763e-06 0)
(6.43583e-05 -8.77276e-06 0)
(6.41711e-05 -1.0571e-05 0)
(6.39903e-05 -1.23587e-05 0)
(6.38177e-05 -1.41352e-05 0)
(6.36555e-05 -1.59011e-05 0)
(6.75555e-05 1.46844e-06 0)
(6.73948e-05 -3.44278e-07 0)
(6.72163e-05 -2.14892e-06 0)
(6.70254e-05 -3.9508e-06 0)
(6.68271e-05 -5.75544e-06 0)
(6.66269e-05 -7.56474e-06 0)
(6.64305e-05 -9.37647e-06 0)
(6.62421e-05 -1.11856e-05 0)
(6.60648e-05 -1.29889e-05 0)
(6.59015e-05 -1.47847e-05 0)
(6.98434e-05 2.57576e-06 0)
(6.96852e-05 7.98576e-07 0)
(6.95106e-05 -9.75524e-07 0)
(6.9321e-05 -2.75176e-06 0)
(6.91197e-05 -4.53792e-06 0)
(6.89126e-05 -6.33936e-06 0)
(6.87069e-05 -8.15618e-06 0)
(6.85097e-05 -9.98279e-06 0)
(6.83267e-05 -1.1813e-05 0)
(6.81623e-05 -1.3641e-05 0)
(7.21067e-05 3.63391e-06 0)
(7.19575e-05 1.89645e-06 0)
(7.17959e-05 1.61038e-07 0)
(7.16168e-05 -1.57686e-06 0)
(7.14204e-05 -3.32839e-06 0)
(7.12116e-05 -5.1046e-06 0)
(7.09989e-05 -6.91159e-06 0)
(7.07924e-05 -8.7471e-06 0)
(7.06019e-05 -1.06026e-05 0)
(7.04359e-05 -1.24659e-05 0)
(7.43281e-05 4.64824e-06 0)
(7.41963e-05 2.94176e-06 0)
(7.40583e-05 1.24523e-06 0)
(7.39005e-05 -4.45656e-07 0)
(7.37193e-05 -2.14629e-06 0)
(7.35179e-05 -3.87563e-06 0)
(7.33041e-05 -5.64956e-06 0)
(7.30899e-05 -7.47605e-06 0)
(7.28905e-05 -9.35034e-06 0)
(7.27214e-05 -1.12534e-05 0)
(7.65001e-05 5.64254e-06 0)
(7.63936e-05 3.93712e-06 0)
(7.62871e-05 2.2666e-06 0)
(7.61583e-05 6.23169e-07 0)
(7.60017e-05 -1.01608e-06 0)
(7.58185e-05 -2.67713e-06 0)
(7.56144e-05 -4.38798e-06 0)
(7.53999e-05 -6.1729e-06 0)
(7.51928e-05 -8.04674e-06 0)
(7.50182e-05 -9.99317e-06 0)
(7.86426e-05 6.67082e-06 0)
(7.85585e-05 4.9022e-06 0)
(7.84783e-05 3.22847e-06 0)
(7.83767e-05 1.62003e-06 0)
(7.82478e-05 4.19738e-08 0)
(7.80913e-05 -1.53964e-06 0)
(7.79103e-05 -3.15968e-06 0)
(7.77109e-05 -4.85855e-06 0)
(7.75063e-05 -6.68425e-06 0)
(7.73311e-05 -8.66279e-06 0)
(5.8143e-05 -9.41838e-06 0)
(5.78255e-05 -7.42676e-06 0)
(5.75016e-05 -5.80244e-06 0)
(5.7153e-05 -4.41304e-06 0)
(5.67612e-05 -3.17448e-06 0)
(5.6307e-05 -2.02638e-06 0)
(5.5769e-05 -9.23416e-07 0)
(5.51207e-05 1.64478e-07 0)
(5.43307e-05 1.22601e-06 0)
(5.3384e-05 2.10232e-06 0)
(5.55531e-05 -8.28028e-06 0)
(5.52584e-05 -6.62002e-06 0)
(5.4973e-05 -5.22066e-06 0)
(5.46608e-05 -4.00604e-06 0)
(5.42999e-05 -2.91433e-06 0)
(5.38731e-05 -1.89902e-06 0)
(5.33653e-05 -9.31843e-07 0)
(5.27661e-05 -1.56991e-08 0)
(5.20773e-05 7.83554e-07 0)
(5.13214e-05 1.31994e-06 0)
(5.35618e-05 -6.9942e-06 0)
(5.32552e-05 -5.70699e-06 0)
(5.29825e-05 -4.5777e-06 0)
(5.27015e-05 -3.57168e-06 0)
(5.23875e-05 -2.65351e-06 0)
(5.20261e-05 -1.79518e-06 0)
(5.16121e-05 -9.85598e-07 0)
(5.11491e-05 -2.43489e-07 0)
(5.06486e-05 3.7129e-07 0)
(5.01179e-05 7.83585e-07 0)
(5.21311e-05 -5.62593e-06 0)
(5.18133e-05 -4.72058e-06 0)
(5.15448e-05 -3.89067e-06 0)
(5.12879e-05 -3.1251e-06 0)
(5.10184e-05 -2.40966e-06 0)
(5.07243e-05 -1.7335e-06 0)
(5.04032e-05 -1.09699e-06 0)
(5.00587e-05 -5.18912e-07 0)
(4.96918e-05 -3.5627e-08 0)
(4.92913e-05 3.23941e-07 0)
(5.12323e-05 -4.2234e-06 0)
(5.09113e-05 -3.69882e-06 0)
(5.06468e-05 -3.18236e-06 0)
(5.04056e-05 -2.67708e-06 0)
(5.01654e-05 -2.18408e-06 0)
(4.99149e-05 -1.70521e-06 0)
(4.96511e-05 -1.24605e-06 0)
(4.93733e-05 -8.17737e-07 0)
(4.90742e-05 -4.34627e-07 0)
(4.87339e-05 -1.04961e-07 0)
(5.08468e-05 -2.82392e-06 0)
(5.05307e-05 -2.67584e-06 0)
(5.02712e-05 -2.47468e-06 0)
(5.00359e-05 -2.23465e-06 0)
(4.9803e-05 -1.96944e-06 0)
(4.95615e-05 -1.69112e-06 0)
(4.93081e-05 -1.40781e-06 0)
(4.90418e-05 -1.12142e-06 0)
(4.87547e-05 -8.274e-07 0)
(4.84278e-05 -5.2124e-07 0)
(5.09659e-05 -1.46037e-06 0)
(5.06622e-05 -1.68277e-06 0)
(5.04081e-05 -1.78792e-06 0)
(5.01684e-05 -1.80296e-06 0)
(4.99204e-05 -1.75582e-06 0)
(4.96528e-05 -1.6703e-06 0)
(4.93633e-05 -1.55897e-06 0)
(4.90543e-05 -1.41624e-06 0)
(4.87258e-05 -1.2171e-06 0)
(4.83654e-05 -9.38849e-07 0)
(5.15911e-05 -1.67055e-07 0)
(5.13067e-05 -7.51381e-07 0)
(5.10565e-05 -1.14214e-06 0)
(5.08023e-05 -1.38764e-06 0)
(5.05219e-05 -1.53504e-06 0)
(5.02029e-05 -1.62356e-06 0)
(4.98406e-05 -1.6757e-06 0)
(4.94388e-05 -1.68528e-06 0)
(4.90072e-05 -1.60604e-06 0)
(4.85522e-05 -1.37508e-06 0)
(5.27358e-05 1.01269e-06 0)
(5.24699e-05 8.42223e-08 0)
(5.22132e-05 -5.56997e-07 0)
(5.19345e-05 -9.96625e-07 0)
(5.16153e-05 -1.30606e-06 0)
(5.12414e-05 -1.5407e-06 0)
(5.08003e-05 -1.73831e-06 0)
(5.02845e-05 -1.90621e-06 0)
(4.96983e-05 -1.99258e-06 0)
(4.90616e-05 -1.87065e-06 0)
(5.44247e-05 2.02097e-06 0)
(5.4141e-05 7.96071e-07 0)
(5.385e-05 -4.54014e-08 0)
(5.35377e-05 -6.40906e-07 0)
(5.31894e-05 -1.08152e-06 0)
(5.2789e-05 -1.43481e-06 0)
(5.23186e-05 -1.75362e-06 0)
(5.17565e-05 -2.0748e-06 0)
(5.10791e-05 -2.3949e-06 0)
(5.02808e-05 -2.57328e-06 0)
(4.92214e-05 1.44297e-06 0)
(4.42232e-05 3.67106e-07 0)
(3.97085e-05 1.75788e-07 0)
(3.52171e-05 1.7597e-07 0)
(3.07395e-05 7.62118e-08 0)
(2.63137e-05 -1.48616e-07 0)
(2.19457e-05 -4.45738e-07 0)
(1.76483e-05 -7.28002e-07 0)
(1.34067e-05 -8.35478e-07 0)
(9.04274e-06 -5.19795e-07 0)
(4.89769e-05 1.47011e-06 0)
(4.42919e-05 6.78758e-07 0)
(3.97301e-05 5.09897e-07 0)
(3.5229e-05 5.07157e-07 0)
(3.07717e-05 4.01727e-07 0)
(2.63655e-05 1.72301e-07 0)
(2.20021e-05 -1.28256e-07 0)
(1.76839e-05 -4.14825e-07 0)
(1.34e-05 -5.33306e-07 0)
(9.11172e-06 -2.93163e-07 0)
(4.84813e-05 1.27888e-06 0)
(4.42571e-05 9.25339e-07 0)
(3.97332e-05 8.43137e-07 0)
(3.52359e-05 8.41798e-07 0)
(3.07985e-05 7.27646e-07 0)
(2.64109e-05 4.93154e-07 0)
(2.2052e-05 1.90668e-07 0)
(1.77177e-05 -1.0141e-07 0)
(1.34189e-05 -2.51768e-07 0)
(9.24989e-06 -1.38249e-07 0)
(4.79807e-05 1.00117e-06 0)
(4.41484e-05 1.11029e-06 0)
(3.97088e-05 1.16947e-06 0)
(3.52341e-05 1.17855e-06 0)
(3.0821e-05 1.05403e-06 0)
(2.64526e-05 8.14163e-07 0)
(2.20995e-05 5.10877e-07 0)
(1.7755e-05 2.10705e-07 0)
(1.34543e-05 1.09153e-08 0)
(9.37673e-06 -9.74971e-09 0)
(4.75808e-05 6.89319e-07 0)
(4.40008e-05 1.25322e-06 0)
(3.96556e-05 1.4869e-06 0)
(3.52225e-05 1.51479e-06 0)
(3.08402e-05 1.37971e-06 0)
(2.64925e-05 1.13464e-06 0)
(2.21473e-05 8.31427e-07 0)
(1.77979e-05 5.2106e-07 0)
(1.34959e-05 2.6112e-07 0)
(9.46081e-06 1.0887e-07 0)
(4.73144e-05 3.68712e-07 0)
(4.38333e-05 1.37834e-06 0)
(3.95739e-05 1.79749e-06 0)
(3.52009e-05 1.84853e-06 0)
(3.08577e-05 1.70383e-06 0)
(2.65326e-05 1.45431e-06 0)
(2.2198e-05 1.15203e-06 0)
(1.78487e-05 8.31021e-07 0)
(1.35388e-05 5.07251e-07 0)
(9.49285e-06 2.24123e-07 0)
(4.71815e-05 6.0901e-08 0)
(4.36516e-05 1.51049e-06 0)
(3.94682e-05 2.10405e-06 0)
(3.51721e-05 2.17731e-06 0)
(3.08753e-05 2.02489e-06 0)
(2.65744e-05 1.77231e-06 0)
(2.22525e-05 1.47181e-06 0)
(1.79081e-05 1.14186e-06 0)
(1.35835e-05 7.57529e-07 0)
(9.47213e-06 3.3975e-07 0)
(4.71419e-05 -2.10917e-07 0)
(4.34402e-05 1.67257e-06 0)
(3.93426e-05 2.4087e-06 0)
(3.51408e-05 2.49927e-06 0)
(3.08958e-05 2.34212e-06 0)
(2.66196e-05 2.08841e-06 0)
(2.23121e-05 1.79049e-06 0)
(1.79778e-05 1.45502e-06 0)
(1.36382e-05 1.02085e-06 0)
(9.40736e-06 4.62057e-07 0)
(4.7097e-05 -4.02289e-07 0)
(4.31762e-05 1.88152e-06 0)
(3.92069e-05 2.71002e-06 0)
(3.51142e-05 2.81249e-06 0)
(3.09223e-05 2.65485e-06 0)
(2.66695e-05 2.40231e-06 0)
(2.23763e-05 2.10741e-06 0)
(1.80577e-05 1.77036e-06 0)
(1.37154e-05 1.30472e-06 0)
(9.32828e-06 6.07573e-07 0)
(4.68208e-05 -4.00677e-07 0)
(4.28395e-05 2.13873e-06 0)
(3.90764e-05 3.00253e-06 0)
(3.51015e-05 3.11587e-06 0)
(3.09583e-05 2.96321e-06 0)
(2.67251e-05 2.71414e-06 0)
(2.24444e-05 2.42216e-06 0)
(1.81456e-05 2.08604e-06 0)
(1.38284e-05 1.61204e-06 0)
(9.31774e-06 8.26267e-07 0)
(1.09863e-05 -2.75251e-05 0)
(1.09561e-05 -2.82064e-05 0)
(1.09571e-05 -2.89953e-05 0)
(1.10128e-05 -2.9822e-05 0)
(1.11314e-05 -3.06317e-05 0)
(1.1313e-05 -3.13784e-05 0)
(1.15523e-05 -3.20212e-05 0)
(1.1839e-05 -3.25246e-05 0)
(1.21587e-05 -3.28585e-05 0)
(1.24934e-05 -3.29999e-05 0)
(1.15366e-05 -2.7494e-05 0)
(1.15409e-05 -2.82046e-05 0)
(1.15653e-05 -2.90057e-05 0)
(1.16165e-05 -2.98446e-05 0)
(1.17008e-05 -3.06679e-05 0)
(1.18202e-05 -3.14282e-05 0)
(1.19725e-05 -3.20833e-05 0)
(1.21514e-05 -3.25961e-05 0)
(1.23473e-05 -3.29354e-05 0)
(1.25473e-05 -3.30774e-05 0)
(1.21202e-05 -2.74382e-05 0)
(1.21152e-05 -2.81837e-05 0)
(1.21306e-05 -2.90067e-05 0)
(1.21622e-05 -2.98607e-05 0)
(1.22091e-05 -3.0697e-05 0)
(1.22714e-05 -3.14697e-05 0)
(1.23483e-05 -3.21363e-05 0)
(1.24368e-05 -3.26585e-05 0)
(1.2531e-05 -3.30033e-05 0)
(1.26216e-05 -3.31451e-05 0)
(1.2722e-05 -2.73498e-05 0)
(1.26998e-05 -2.81351e-05 0)
(1.26947e-05 -2.89898e-05 0)
(1.26978e-05 -2.98659e-05 0)
(1.27035e-05 -3.07189e-05 0)
(1.27097e-05 -3.15062e-05 0)
(1.27162e-05 -3.21869e-05 0)
(1.2723e-05 -3.27216e-05 0)
(1.27272e-05 -3.30741e-05 0)
(1.27217e-05 -3.32155e-05 0)
(1.33551e-05 -2.72236e-05 0)
(1.33169e-05 -2.80598e-05 0)
(1.32899e-05 -2.89546e-05 0)
(1.32616e-05 -2.9859e-05 0)
(1.32234e-05 -3.07328e-05 0)
(1.3172e-05 -3.15383e-05 0)
(1.31081e-05 -3.22374e-05 0)
(1.30346e-05 -3.27899e-05 0)
(1.29522e-05 -3.31549e-05 0)
(1.28555e-05 -3.32966e-05 0)
(1.40455e-05 -2.70591e-05 0)
(1.3994e-05 -2.79622e-05 0)
(1.39469e-05 -2.89044e-05 0)
(1.3887e-05 -2.98409e-05 0)
(1.38035e-05 -3.07379e-05 0)
(1.36922e-05 -3.15643e-05 0)
(1.35546e-05 -3.22865e-05 0)
(1.33965e-05 -3.28643e-05 0)
(1.32233e-05 -3.32495e-05 0)
(1.30324e-05 -3.33938e-05 0)
(1.48224e-05 -2.68626e-05 0)
(1.47611e-05 -2.78491e-05 0)
(1.46959e-05 -2.88442e-05 0)
(1.46048e-05 -2.98139e-05 0)
(1.44757e-05 -3.07338e-05 0)
(1.43036e-05 -3.15817e-05 0)
(1.40889e-05 -3.23302e-05 0)
(1.38381e-05 -3.29412e-05 0)
(1.35616e-05 -3.33586e-05 0)
(1.32641e-05 -3.35114e-05 0)
(1.57171e-05 -2.66456e-05 0)
(1.56484e-05 -2.77292e-05 0)
(1.55648e-05 -2.87794e-05 0)
(1.54424e-05 -2.97803e-05 0)
(1.52695e-05 -3.07214e-05 0)
(1.50396e-05 -3.15884e-05 0)
(1.47495e-05 -3.2363e-05 0)
(1.44005e-05 -3.30128e-05 0)
(1.40019e-05 -3.34781e-05 0)
(1.35677e-05 -3.36535e-05 0)
(1.67603e-05 -2.64246e-05 0)
(1.6683e-05 -2.76119e-05 0)
(1.6576e-05 -2.87135e-05 0)
(1.6421e-05 -2.97434e-05 0)
(1.62085e-05 -3.07029e-05 0)
(1.59309e-05 -3.15867e-05 0)
(1.55792e-05 -3.23826e-05 0)
(1.5143e-05 -3.30697e-05 0)
(1.46135e-05 -3.35961e-05 0)
(1.39862e-05 -3.38222e-05 0)
(1.79775e-05 -2.62243e-05 0)
(1.78818e-05 -2.74994e-05 0)
(1.77408e-05 -2.86459e-05 0)
(1.75508e-05 -2.97032e-05 0)
(1.73051e-05 -3.06822e-05 0)
(1.69955e-05 -3.15821e-05 0)
(1.661e-05 -3.23954e-05 0)
(1.61291e-05 -3.31089e-05 0)
(1.55164e-05 -3.36892e-05 0)
(1.46811e-05 -3.39892e-05 0)
(1.33842e-06 -4.72614e-06 0)
(2.13351e-06 -4.84321e-06 0)
(2.83461e-06 -4.99185e-06 0)
(3.5061e-06 -5.14529e-06 0)
(4.16935e-06 -5.29729e-06 0)
(4.83258e-06 -5.44665e-06 0)
(5.50296e-06 -5.59421e-06 0)
(6.1863e-06 -5.74134e-06 0)
(6.89237e-06 -5.89016e-06 0)
(7.63439e-06 -6.04427e-06 0)
(1.39149e-06 -5.79927e-06 0)
(2.26004e-06 -5.85848e-06 0)
(3.03145e-06 -5.95407e-06 0)
(3.75764e-06 -6.0712e-06 0)
(4.46623e-06 -6.19901e-06 0)
(5.17114e-06 -6.3321e-06 0)
(5.8817e-06 -6.46832e-06 0)
(6.60609e-06 -6.6072e-06 0)
(7.35546e-06 -6.74983e-06 0)
(8.14509e-06 -6.89855e-06 0)
(1.49453e-06 -6.84581e-06 0)
(2.39483e-06 -6.89233e-06 0)
(3.21921e-06 -6.96152e-06 0)
(3.99703e-06 -7.05261e-06 0)
(4.75151e-06 -7.15942e-06 0)
(5.49825e-06 -7.27659e-06 0)
(6.24853e-06 -7.40091e-06 0)
(7.01241e-06 -7.53091e-06 0)
(7.80248e-06 -7.66644e-06 0)
(8.63571e-06 -7.80864e-06 0)
(1.62943e-06 -7.88381e-06 0)
(2.55002e-06 -7.93268e-06 0)
(3.412e-06 -7.99412e-06 0)
(4.23266e-06 -8.07191e-06 0)
(5.02906e-06 -8.16463e-06 0)
(5.81546e-06 -8.26932e-06 0)
(6.6036e-06 -8.38329e-06 0)
(7.40458e-06 -8.50473e-06 0)
(8.2321e-06 -8.63303e-06 0)
(9.10429e-06 -8.76845e-06 0)
(1.78783e-06 -8.92918e-06 0)
(2.72627e-06 -8.98349e-06 0)
(3.61643e-06 -9.04544e-06 0)
(4.47116e-06 -9.11859e-06 0)
(5.3034e-06 -9.20384e-06 0)
(6.12528e-06 -9.30019e-06 0)
(6.94795e-06 -9.40612e-06 0)
(7.78274e-06 -9.52031e-06 0)
(8.64383e-06 -9.64184e-06 0)
(9.54983e-06 -9.7704e-06 0)
(1.96628e-06 -9.98906e-06 0)
(2.92151e-06 -1.0049e-05 0)
(3.8342e-06 -1.01142e-05 0)
(4.71604e-06 -1.01873e-05 0)
(5.57787e-06 -1.02695e-05 0)
(6.43011e-06 -1.03611e-05 0)
(7.28299e-06 -1.04614e-05 0)
(8.14747e-06 -1.05696e-05 0)
(9.03775e-06 -1.0685e-05 0)
(9.97233e-06 -1.08071e-05 0)
(2.16335e-06 -1.10652e-05 0)
(3.13392e-06 -1.11305e-05 0)
(4.06511e-06 -1.11998e-05 0)
(4.9686e-06 -1.12748e-05 0)
(5.85435e-06 -1.13566e-05 0)
(6.73166e-06 -1.14458e-05 0)
(7.6099e-06 -1.15424e-05 0)
(8.49951e-06 -1.16459e-05 0)
(9.41431e-06 -1.17559e-05 0)
(1.03724e-05 -1.18716e-05 0)
(2.37843e-06 -1.21567e-05 0)
(3.36228e-06 -1.22272e-05 0)
(4.30851e-06 -1.23008e-05 0)
(5.22909e-06 -1.23785e-05 0)
(6.13365e-06 -1.24612e-05 0)
(7.0309e-06 -1.25495e-05 0)
(7.92956e-06 -1.26435e-05 0)
(8.83951e-06 -1.27432e-05 0)
(9.77414e-06 -1.28482e-05 0)
(1.07509e-05 -1.29581e-05 0)
(2.61121e-06 -1.32616e-05 0)
(3.60585e-06 -1.33371e-05 0)
(4.56379e-06 -1.3415e-05 0)
(5.4973e-06 -1.34958e-05 0)
(6.416e-06 -1.358e-05 0)
(7.32828e-06 -1.3668e-05 0)
(8.24247e-06 -1.37602e-05 0)
(9.16799e-06 -1.38567e-05 0)
(1.01178e-05 -1.39572e-05 0)
(1.11088e-05 -1.40614e-05 0)
(2.86162e-06 -1.43771e-05 0)
(3.86428e-06 -1.44577e-05 0)
(4.83053e-06 -1.45399e-05 0)
(5.77299e-06 -1.46238e-05 0)
(6.70135e-06 -1.47097e-05 0)
(7.62394e-06 -1.47979e-05 0)
(8.54886e-06 -1.48887e-05 0)
(9.48528e-06 -1.49821e-05 0)
(1.04459e-05 -1.50782e-05 0)
(1.1447e-05 -1.51771e-05 0)
(3.12972e-06 -1.55004e-05 0)
(4.13742e-06 -1.5586e-05 0)
(5.10851e-06 -1.56725e-05 0)
(6.05592e-06 -1.57596e-05 0)
(6.98957e-06 -1.58473e-05 0)
(7.91784e-06 -1.59357e-05 0)
(8.84882e-06 -1.60251e-05 0)
(9.79154e-06 -1.61157e-05 0)
(1.07586e-05 -1.62077e-05 0)
(1.17661e-05 -1.63012e-05 0)
(3.41577e-06 -1.66282e-05 0)
(4.42537e-06 -1.6719e-05 0)
(5.39767e-06 -1.68097e-05 0)
(6.34599e-06 -1.69e-05 0)
(7.28053e-06 -1.69895e-05 0)
(8.20988e-06 -1.70783e-05 0)
(9.14225e-06 -1.71664e-05 0)
(1.00868e-05 -1.72542e-05 0)