/*--------------------------------*- C++ -*----------------------------------*\
| =========                 |                                                 |
| \\      /  F ield         | OpenFOAM: The Open Source CFD Toolbox           |
|  \\    /   O peration     | Version:  2106                                  |
|   \\  /    A nd           | Website:  www.openfoam.com                      |
|    \\/     M anipulation  |                                                 |
\*---------------------------------------------------------------------------*/
FoamFile
{
    version     2.0;
    format      ascii;
    arch        "LSB;label=32;scalar=64";
    class       volSymmTensorField;
    location    "40";
    object      sigma;
}
// * * * * * * * * * * * * * * * * * * * * * * * * * * * * * * * * * * * * * //

dimensions      [1 -1 -2 0 0 0 0];

internalField   nonuniform List<symmTensor> 
3500
(
(-917643 217095 3.9117e-11 -1.31391e+06 3.34807e-11 -514975)
(-972870 192125 2.59714e-12 -1.67628e+06 1.23414e-10 -611343)
(-1.01017e+06 155505 -4.84356e-11 -2.10928e+06 7.74215e-11 -719872)
(-1.02413e+06 126496 -4.59971e-13 -2.46006e+06 -3.49964e-11 -804045)
(-1.02985e+06 102100 2.61988e-11 -2.75531e+06 -3.53232e-11 -873499)
(-1.03312e+06 79892.2 -1.12042e-11 -3.00855e+06 4.70492e-11 -932694)
(-1.0358e+06 58044.7 1.07805e-14 -3.22504e+06 -2.34589e-11 -983270)
(-1.03784e+06 36489.4 7.48632e-12 -3.40618e+06 -2.23433e-11 -1.02554e+06)
(-1.03979e+06 14697.3 -5.43802e-12 -3.55233e+06 2.33942e-11 -1.05972e+06)
(-1.04092e+06 -6886.79 3.32617e-12 -3.66331e+06 -2.4193e-11 -1.08559e+06)
(-1.04204e+06 -28604.1 2.11069e-13 -3.7391e+06 -9.76566e-12 -1.10334e+06)
(-1.04213e+06 -49997.9 6.79585e-13 -3.77938e+06 2.50918e-11 -1.11266e+06)
(-1.04233e+06 -71375.8 3.21689e-12 -3.784e+06 2.50613e-11 -1.11377e+06)
(-1.04135e+06 -92330.2 5.71806e-12 -3.75241e+06 3.46986e-11 -1.10625e+06)
(-1.04057e+06 -113120 0 -3.68413e+06 0 -1.09032e+06)
(-1.03848e+06 -133397 -1.93665e-11 -3.57826e+06 -4.71686e-11 -1.0654e+06)
(-1.03667e+06 -153348 -1.87013e-13 -3.43387e+06 -4.856e-11 -1.03166e+06)
(-1.03342e+06 -172691 1.36686e-11 -3.24969e+06 4.99989e-11 -988410)
(-1.03049e+06 -191498 1.69095e-19 -3.02435e+06 2.13153e-19 -935731)
(-1.02605e+06 -209517 -3.51114e-13 -2.75636e+06 3.6994e-11 -872863)
(-1.02199e+06 -226605 -3.71094e-11 -2.44438e+06 -7.14658e-11 -799931)
(-1.01652e+06 -242409 7.84388e-13 -2.08755e+06 -4.37764e-11 -716326)
(-1.01169e+06 -256363 -2.77525e-19 -1.68612e+06 9.51549e-20 -622573)
(-1.00596e+06 -267826 3.98725e-12 -1.24242e+06 -1.4566e-10 -518856)
(-1.00162e+06 -275745 2.28211e-11 -761536 3.32857e-12 -406883)
(-997434 -279695 4.81697e-11 -251888 -5.1464e-11 -288305)
(-994650 -279744 4.61594e-11 277558 -8.31625e-12 -165483)
(-988045 -279541 -4.83184e-11 819313 6.66122e-11 -38938.2)
(-963427 -284471 -2.24556e-11 1.38547e+06 1.20891e-11 97394.6)
(-889360 -299770 1.081e-11 1.94169e+06 -9.98913e-11 242846)
(-701484 686851 -5.32522e-11 -1.26118e+06 7.58584e-12 -452923)
(-800041 619844 6.98833e-12 -1.41806e+06 1.02305e-10 -511869)
(-874319 539336 5.24078e-11 -1.66888e+06 5.46775e-11 -586891)
(-904820 463888 3.94612e-11 -1.91754e+06 -7.19189e-11 -651315)
(-914777 396041 -1.68834e-12 -2.14419e+06 -2.71372e-11 -705915)
(-917025 333921 1.33227e-12 -2.34256e+06 2.38813e-11 -752212)
(-917397 273841 2.8743e-11 -2.51212e+06 -1.61494e-11 -791426)
(-916948 215046 0 -2.65317e+06 0 -823873)
(-917274 156089 -1.69e-11 -2.7665e+06 3.0486e-11 -850101)
(-916996 97580.3 -2.33439e-11 -2.85197e+06 2.88969e-11 -869761)
(-917806 38670.6 5.56831e-13 -2.9101e+06 8.00898e-12 -883364)
(-917598 -19942.4 -1.64419e-12 -2.94027e+06 -3.84801e-11 -890277)
(-918676 -79065.3 -6.61677e-12 -2.94288e+06 -2.88651e-11 -891128)
(-918391 -138137 1.30234e-11 -2.91693e+06 2.82853e-11 -885073)
(-919608 -197914 1.90858e-11 -2.86273e+06 3.22401e-11 -872846)
(-919203 -257981 0 -2.77892e+06 0 -853412)
(-920519 -318968 -2.99111e-11 -2.66569e+06 -6.10497e-11 -827587)
(-920088 -380576 -3.80984e-11 -2.52138e+06 9.57367e-12 -794185)
(-921689 -443158 -1.35468e-12 -2.34609e+06 2.94076e-11 -754103)
(-921785 -506349 4.92342e-11 -2.13803e+06 -1.92777e-11 -706112)
(-924654 -569824 -4.83212e-19 -1.89745e+06 -1.78019e-19 -651254)
(-927095 -632579 -5.61741e-11 -1.6229e+06 -9.70864e-12 -588460)
(-933998 -692778 1.19289e-10 -1.31538e+06 1.49471e-11 -519087)
(-942726 -747975 1.2131e-11 -974718 -1.24943e-10 -442487)
(-958090 -794552 -5.46641e-11 -603701 -8.73993e-11 -360413)
(-976085 -830093 1.25054e-10 -204381 4.16057e-11 -272415)
(-995346 -853423 -1.31912e-11 217881 8.52743e-11 -179415)
(-997111 -868817 -1.44562e-10 656999 9.74309e-11 -78487.5)
(-947875 -877581 1.2668e-10 1.0909e+06 -1.98575e-11 33004.9)
(-787235 -869576 4.46094e-11 1.47257e+06 -4.5605e-11 158154)
(-637016 886436 -1.07652e-10 -1.10028e+06 -1.80789e-11 -400915)
(-696681 843980 -1.05925e-10 -1.19193e+06 -4.61173e-11 -435833)
(-762819 770185 9.0944e-11 -1.3273e+06 -7.31916e-11 -482336)
(-797892 684742 1.292e-10 -1.47741e+06 -5.34698e-11 -525069)
(-812342 596843 -3.72708e-11 -1.62673e+06 3.41733e-11 -562862)
(-816801 509898 -7.04769e-11 -1.7638e+06 5.93044e-13 -595522)
(-817752 423883 3.06238e-11 -1.88336e+06 6.3433e-12 -623334)
(-817676 338687 -7.1906e-19 -1.98348e+06 3.84501e-19 -646421)
(-817902 253703 1.23584e-12 -2.06384e+06 1.1092e-11 -665018)
(-818100 168999 -3.08638e-19 -2.12432e+06 3.60258e-19 -679019)
(-818822 84148.8 -6.70127e-20 -2.16513e+06 1.41301e-19 -688604)
(-819258 -762.108 -2.21122e-13 -2.18606e+06 1.46805e-11 -693535)
(-820144 -86174.1 1.01962e-12 -2.18722e+06 -4.71455e-12 -694008)
(-820523 -172086 -2.67584e-11 -2.16817e+06 -2.77522e-11 -689698)
(-821354 -258950 1.96079e-11 -2.12891e+06 1.35908e-11 -680829)
(-821554 -346832 2.5725e-11 -2.06883e+06 1.31566e-11 -667011)
(-822287 -436135 -3.16769e-11 -1.98786e+06 -1.25705e-11 -648495)
(-822459 -526935 -7.32167e-11 -1.88527e+06 -4.73579e-11 -624860)
(-823565 -619444 8.57101e-11 -1.76091e+06 2.18585e-11 -596417)
(-824818 -713500 5.00733e-11 -1.6139e+06 -1.99025e-11 -562782)
(-828415 -808678 -1.57902e-10 -1.44396e+06 -2.58916e-11 -524394)
(-834468 -903891 2.85712e-12 -1.24994e+06 -3.43148e-11 -481017)
(-846348 -997061 1.84486e-10 -1.03124e+06 -1.90507e-11 -433289)
(-865215 -1.085e+06 1.18672e-10 -786468 8.14759e-11 -381158)
(-894308 -1.16312e+06 -1.95886e-10 -515322 -5.35036e-12 -325299)
(-931712 -1.22643e+06 -1.38219e-10 -218450 3.82572e-11 -265422)
(-971129 -1.26983e+06 6.03027e-11 99161.8 3.39492e-11 -201223)
(-992884 -1.2896e+06 -6.12902e-26 424236 7.16911e-26 -131226)
(-964329 -1.27939e+06 1.2673e-10 736678 -1.48142e-11 -52534.8)
(-856372 -1.22577e+06 9.9347e-12 1.00262e+06 5.95685e-11 33749.5)
(-610724 984134 5.22235e-11 -873206 3.75252e-11 -342445)
(-621527 958961 4.63575e-11 -929753 -6.15522e-11 -357987)
(-657159 898641 3.09599e-19 -997315 -3.23051e-20 -381802)
(-679817 816307 -8.77462e-11 -1.07423e+06 1.25661e-11 -404779)
(-690576 721826 4.27826e-12 -1.15519e+06 4.46385e-11 -425947)
(-694354 621989 -4.06258e-19 -1.23269e+06 8.30173e-20 -444702)
(-695328 520263 -1.8951e-12 -1.30185e+06 -1.67804e-11 -460888)
(-695573 418203 1.7875e-12 -1.36035e+06 1.35936e-11 -474443)
(-695985 316234 -1.94707e-11 -1.40738e+06 -1.53777e-12 -485391)
(-696541 214436 -1.33501e-11 -1.44272e+06 2.28816e-12 -493676)
(-697316 112602 3.90995e-12 -1.46642e+06 -1.20022e-11 -499323)
(-697983 10547.6 8.01458e-13 -1.4784e+06 -1.00047e-11 -502242)
(-698673 -92037.3 -8.03841e-20 -1.47867e+06 -1.96966e-19 -502464)
(-699063 -195392 1.61009e-12 -1.46709e+06 -8.41521e-12 -499881)
(-699380 -299840 2.13596e-11 -1.44361e+06 -3.21548e-12 -494535)
(-699315 -405640 0 -1.40803e+06 0 -486311)
(-699220 -513106 0 -1.36032e+06 0 -475278)
(-698925 -622476 -3.76203e-11 -1.30024e+06 -7.87338e-12 -461346)
(-699133 -733961 6.17137e-12 -1.22768e+06 -7.58024e-11 -444648)
(-700230 -847614 4.38214e-11 -1.14219e+06 6.24679e-11 -425175)
(-703880 -963233 2.43066e-12 -1.04326e+06 -3.0088e-11 -403186)
(-711857 -1.08012e+06 5.38439e-12 -929648 -6.37382e-11 -378809)
(-727667 -1.19671e+06 -5.79321e-11 -799617 -3.73578e-11 -352450)
(-754958 -1.31006e+06 -6.74539e-11 -650388 3.08584e-11 -324310)
(-797957 -1.41514e+06 -4.06797e-12 -479135 3.41122e-11 -294713)
(-857503 -1.50429e+06 7.22049e-11 -284017 -3.35396e-11 -263428)
(-928252 -1.56684e+06 6.74995e-11 -68065 -1.51907e-12 -229919)
(-992867 -1.59002e+06 -5.3347e-11 159715 -5.9474e-11 -192266)
(-1.02538e+06 -1.55986e+06 6.49858e-19 379044 -5.06318e-20 -149156)
(-1.00304e+06 -1.46594e+06 4.81e-12 567859 2.62374e-11 -100427)
(-593996 1.03079e+06 5.5353e-11 -613014 2.56743e-11 -278541)
(-560878 1.00959e+06 -4.82942e-11 -638398 3.06451e-11 -276756)
(-560607 955632 4.51095e-12 -659594 5.11343e-11 -281585)
(-560886 876320 4.6127e-11 -681303 1.99478e-11 -286659)
(-560620 780237 -3.95442e-11 -704480 3.8718e-12 -291946)
(-560097 675187 3.6776e-11 -726972 1.48918e-11 -297016)
(-559899 566323 -3.98537e-19 -747207 1.43309e-19 -301640)
(-560180 456270 -2.05741e-12 -764352 -1.30436e-11 -305661)
(-560884 346100 3.36146e-11 -778114 -1.85629e-11 -309000)
(-561735 236006 2.02223e-12 -788390 6.30329e-12 -311567)
(-562615 125891 -1.3077e-11 -795172 6.31602e-12 -313335)
(-563290 15472.1 7.59382e-12 -798417 6.33006e-12 -314240)
(-563764 -95495.3 -2.01667e-12 -798131 4.59383e-12 -314284)
(-563849 -207326 -9.41778e-12 -794278 -2.10064e-11 -313414)
(-563625 -320265 0 -786905 0 -311661)
(-562937 -434623 2.05277e-12 -776028 -1.52962e-11 -308992)
(-561980 -550647 -3.39988e-11 -761765 1.4312e-11 -305479)
(-560770 -668651 3.77159e-11 -744167 4.15801e-12 -301139)
(-559892 -788891 2.13214e-12 -723327 -2.44827e-11 -296128)
(-560006 -911666 -4.84225e-11 -699111 -3.83438e-12 -290566)
(-562791 -1.03717e+06 5.32205e-11 -671131 3.62635e-12 -284751)
(-570581 -1.16545e+06 0 -638263 0 -278964)
(-587503 -1.29602e+06 2.53687e-12 -598397 -3.19036e-11 -273669)
(-618966 -1.42718e+06 2.827e-12 -547746 -3.25172e-11 -269241)
(-672093 -1.55467e+06 -6.69479e-11 -480882 -2.0161e-12 -266071)
(-753065 -1.66974e+06 -5.65318e-11 -391391 -9.69182e-11 -264105)
(-863503 -1.75701e+06 1.3723e-10 -274758 2.26803e-13 -262676)
(-993700 -1.79466e+06 -1.23504e-18 -134320 -9.45198e-20 -260312)
(-1.11741e+06 -1.75945e+06 -7.13811e-11 19366.2 2.95788e-11 -253396)
(-1.20044e+06 -1.63848e+06 5.20053e-11 158815 2.12396e-11 -240374)
(-575384 1.03792e+06 5.07198e-11 -341722 1.12881e-11 -211640)
(-502114 1.01223e+06 2.49364e-12 -336944 2.73662e-11 -193629)
(-465727 955517 -4.61225e-12 -316177 -5.13394e-11 -180439)
(-441504 874443 -3.59026e-20 -288342 9.18827e-22 -168426)
(-428275 777408 -4.36431e-12 -257790 -4.30355e-11 -158323)
(-422472 672154 0 -227530 0 -150000)
(-420790 563474 5.86709e-11 -199931 -1.06407e-12 -143243)
(-421078 453885 2.59869e-11 -176304 1.27115e-11 -137857)
(-422044 344178 -5.34371e-11 -157177 6.61961e-13 -133666)
(-423174 234582 -7.00634e-12 -142700 1.27458e-11 -130586)
(-424055 124851 -3.13268e-12 -132818 2.77773e-12 -128509)
(-424697 14832.2 1.62003e-12 -127540 -9.14991e-13 -127439)
(-424848 -95802.8 -9.53295e-12 -126800 4.59488e-12 -127303)
(-424653 -207212 1.34634e-11 -130719 2.39918e-14 -128163)
(-423850 -319689 1.67462e-19 -139335 -4.92893e-21 -129966)
(-422657 -433391 -2.59042e-11 -152920 -1.88594e-13 -132825)
(-420856 -548607 -2.96097e-11 -171627 -1.89387e-11 -136727)
(-418878 -665556 3.9933e-11 -195863 -2.11981e-11 -141863)
(-416809 -784605 -2.17048e-12 -225835 2.45341e-11 -148303)
(-415712 -906170 -1.95156e-20 -261913 1.24106e-19 -156375)
(-416668 -1.03089e+06 0 -304009 0 -166310)
(-422425 -1.15957e+06 5.76388e-11 -351773 1.62473e-12 -178661)
(-436711 -1.29313e+06 1.96273e-12 -403542 -3.21083e-11 -193905)
(-466395 -1.43205e+06 -1.2981e-10 -455862 -4.56195e-12 -212829)
(-521242 -1.5749e+06 1.35156e-10 -501706 4.98632e-12 -236065)
(-615282 -1.71536e+06 7.22111e-11 -529433 -2.95276e-11 -264165)
(-762926 -1.83744e+06 -1.4371e-10 -523497 2.63052e-11 -296867)
(-969690 -1.91214e+06 -1.43057e-10 -469695 2.5892e-11 -332166)
(-1.21451e+06 -1.89998e+06 -5.90624e-11 -372127 -2.61149e-11 -366148)
(-1.43825e+06 -1.77162e+06 1.00776e-10 -263183 2.15445e-11 -392639)
(-548537 1.00648e+06 4.80374e-11 -78239.1 -1.64562e-11 -144641)
(-432619 967046 5.11586e-11 -37775.7 6.64273e-13 -108553)
(-362834 898319 4.56726e-11 28086.1 -2.58135e-11 -77249.5)
(-319174 810782 4.18743e-11 110698 -2.33543e-11 -48109.8)
(-297647 713710 -4.39933e-11 198714 -4.71302e-11 -22830.8)
(-289229 613491 -3.45726e-11 283341 -2.67203e-12 -1358.78)
(-287268 512426 -2.92319e-11 358903 -3.2133e-12 16531.1)
(-287889 411772 7.73645e-12 422799 4.10059e-11 31132.9)
(-289074 311131 2.04127e-11 474217 1.42907e-11 42725.3)
(-290412 210770 -1.1676e-11 512934 -4.33216e-12 51351.2)
(-291107 110009 -8.29967e-12 539174 -7.46765e-12 57246.4)
(-291765 9101.29 -8.5363e-12 552807 2.50159e-12 60240.6)
(-291470 -92572.3 -7.11848e-12 554062 4.63137e-12 60598.3)
(-291241 -194728 -2.82303e-12 542540 8.41845e-12 57992)
(-289828 -297921 2.76917e-12 518382 -1.21338e-11 52743.4)
(-288591 -401892 2.31278e-11 480920 1.16433e-11 44383.6)
(-286016 -507161 -2.42907e-19 430200 3.75082e-20 33273.3)
(-283884 -613588 -4.00045e-11 365293 2.56802e-11 18786.8)
(-280659 -721770 -4.30553e-11 286146 2.67372e-12 1266.32)
(-278824 -831928 -2.09117e-12 191604 2.80975e-11 -20127.8)
(-277405 -945084 5.3063e-11 81584.1 -1.18982e-12 -45189.4)
(-280367 -1.06239e+06 5.74857e-11 -45032 -2.82126e-13 -75092.2)
(-288839 -1.18602e+06 1.44593e-12 -187677 -3.37673e-11 -109965)
(-311031 -1.3188e+06 -6.36828e-11 -345548 -3.64594e-11 -151518)
(-355699 -1.46388e+06 -1.52389e-25 -512869 7.98951e-26 -200439)
(-444673 -1.622e+06 -1.46445e-10 -677136 1.2917e-10 -258879)
(-606795 -1.78479e+06 2.25869e-12 -811832 -3.27367e-11 -327375)
(-880212 -1.92381e+06 1.38602e-10 -880156 3.91312e-11 -406239)
(-1.26944e+06 -1.98116e+06 -4.95932e-11 -848745 -8.43449e-11 -488812)
(-1.70009e+06 -1.88684e+06 -3.64135e-12 -751100 -2.40472e-11 -565658)
(-503112 925162 -5.7671e-11 154919 -3.39787e-11 -80352.3)
(-339205 857319 -2.60526e-19 239162 -1.23938e-20 -23087)
(-244883 769493 4.82759e-11 370955 3.20852e-12 29093.6)
(-195919 675773 4.18864e-11 526438 -2.28209e-11 76273.6)
(-175445 585094 -3.70426e-11 682142 1.91757e-11 116930)
(-169023 497712 -7.13185e-11 824627 -3.41902e-11 151293)
(-168520 413481 -2.62034e-11 948380 1.10981e-11 179967)
(-169328 329962 -3.01505e-12 1.05185e+06 -1.48319e-11 203660)
(-171149 247363 3.18062e-12 1.13454e+06 1.11443e-11 222322)
(-171686 164181 8.26845e-12 1.19714e+06 1.70468e-12 236644)
(-173090 81241.9 1.42241e-11 1.23914e+06 2.19951e-11 246013)
(-172526 -2577.19 -6.85188e-12 1.26146e+06 1.32989e-12 251293)
(-173308 -86369.3 3.66607e-12 1.26299e+06 -4.77506e-12 251465)
(-171617 -171111 2.33455e-11 1.24475e+06 -9.96989e-12 247647)
(-171709 -255975 -3.31577e-12 1.20513e+06 1.2721e-11 238481)
(-168856 -341797 -4.81511e-11 1.14527e+06 6.85942e-13 225326)
(-168166 -427908 -4.06862e-11 1.06307e+06 6.89347e-11 206517)
(-164219 -515025 3.73159e-11 959776 -7.28484e-12 183590)
(-162950 -602803 -5.13346e-12 832784 5.41806e-11 154577)
(-158640 -692020 4.64858e-19 683248 -5.11951e-20 121063)
(-158154 -783055 5.26987e-11 507972 -4.00988e-12 80727.1)
(-156145 -877359 1.15744e-10 307638 -4.01128e-11 34959.9)
(-161085 -977162 5.99426e-11 78167.5 3.59047e-11 -19134.9)
(-170135 -1.08654e+06 -1.93999e-10 -180378 -2.80129e-12 -80887.7)
(-198119 -1.21265e+06 -2.03884e-10 -471169 2.991e-11 -154451)
(-257162 -1.36519e+06 1.41387e-10 -787194 -2.85076e-11 -241005)
(-394414 -1.55336e+06 7.36513e-11 -1.10953e+06 -6.81682e-11 -347063)
(-676416 -1.76676e+06 9.67983e-19 -1.37775e+06 1.04113e-19 -474038)
(-1.19737e+06 -1.94829e+06 6.79535e-11 -1.50074e+06 3.92718e-11 -622640)
(-1.93351e+06 -1.976e+06 -6.68286e-11 -1.42706e+06 -6.11503e-12 -775517)
(-403818 744174 -5.83142e-11 295806 -3.85662e-11 -24925.9)
(-205908 634303 -2.49589e-19 485667 -2.16796e-21 64559.8)
(-120012 535986 9.68506e-11 734260 1.11219e-11 141750)
(-85361.1 452867 4.74792e-12 988076 6.0942e-11 208319)
(-74270.9 383457 -3.90636e-11 1.2179e+06 -8.95359e-12 263915)
(-72409.2 322031 -3.40051e-11 1.41766e+06 -1.03917e-11 310442)
(-72868.2 264078 -2.86992e-11 1.58759e+06 -1.16195e-11 349552)
(-74395.7 207169 -7.37433e-12 1.7286e+06 -3.31693e-11 381739)
(-75155.2 150384 1.34701e-11 1.84185e+06 9.28138e-13 407698)
(-76322.3 93295.5 -1.95564e-11 1.92728e+06 -3.0729e-11 427144)
(-76378.2 35960.8 7.61905e-20 1.98557e+06 2.00328e-19 440582)
(-77024.1 -21741.2 -1.70934e-12 2.01596e+06 2.94423e-11 447446)
(-76440.8 -79606.4 0 2.01905e+06 0 448294)
(-76605.7 -137767 -8.52447e-22 1.99368e+06 -2.59952e-21 442402)
(-75411.5 -195976 3.06757e-11 1.94052e+06 -1.21908e-12 430409)
(-75048.6 -254389 -2.54604e-11 1.85808e+06 1.3577e-11 411468)
(-73217.5 -312735 -3.13268e-11 1.74707e+06 1.27717e-11 386274)
(-72286.1 -371218 3.44482e-12 1.60572e+06 -2.58486e-11 353869)
(-69916.7 -429630 -4.23665e-11 1.43467e+06 1.05091e-11 314944)
(-68665.9 -488355 9.48872e-11 1.23174e+06 -1.80827e-11 268401)
(-66349.3 -547478 1.04334e-10 997196 -1.4686e-11 214811)
(-65813.1 -607980 -1.76714e-12 727937 3.88379e-11 152798)
(-65264 -671022 -6.16328e-11 422722 4.43993e-11 82490.4)
(-68366.2 -739982 -6.56761e-11 75502.4 1.30113e-10 1646.81)
(-76174.3 -821212 6.69495e-11 -319793 -8.70513e-11 -91377.1)
(-101502 -928834 6.86225e-11 -776150 -8.56037e-11 -202535)
(-173329 -1.08613e+06 -7.20463e-11 -1.30054e+06 3.664e-11 -340123)
(-376580 -1.31915e+06 -7.88744e-11 -1.87825e+06 -1.01954e-10 -520345)
(-887148 -1.61359e+06 -7.92392e-11 -2.39369e+06 2.58951e-11 -757117)
(-1.91545e+06 -1.85236e+06 -7.1402e-12 -2.55718e+06 3.35564e-11 -1.03215e+06)
(-151967 272813 -2.87374e-12 117732 -5.47804e-12 -7900.39)
(-16823.1 188424 -1.80934e-11 778331 -5.65564e-12 175732)
(19445.4 146113 -1.64596e-11 1.21848e+06 -8.7548e-12 285676)
(31245.5 117431 1.79536e-11 1.5645e+06 1.17448e-10 368250)
(35269.6 94240.4 1.18385e-11 1.85255e+06 -1.83412e-11 435650)
(37218.9 73843.3 -2.11765e-11 2.09895e+06 -2.47562e-12 492961)
(39193.5 53271.7 9.40213e-12 2.30986e+06 1.65913e-11 542089)
(40306.2 33180.2 5.82018e-12 2.48664e+06 -1.23839e-12 583142)
(42159.8 12179.5 -1.70473e-12 2.62987e+06 -1.45342e-11 616623)
(42466.3 -8443.78 0 2.73871e+06 0 641810)
(43905.4 -29800.3 -3.62511e-12 2.81349e+06 -9.93078e-12 659399)
(43165.5 -50592.7 0 2.85304e+06 0 668355)
(44014.1 -71824.4 3.22161e-12 2.85793e+06 -2.05377e-11 669679)
(42158.2 -92310 1.8087e-12 2.82675e+06 -9.85591e-12 662055)
(42342.1 -112913 6.28151e-20 2.76024e+06 -1.60071e-19 646749)
(39392.1 -132613 -1.68996e-12 2.65675e+06 1.95605e-11 622186)
(38882.9 -152086 1.59266e-12 2.51718e+06 -2.4232e-11 589860)
(34917.7 -170534 1.36633e-11 2.33971e+06 -1.6816e-11 547990)
(33710.1 -188420 -1.28581e-11 2.12534e+06 -5.07564e-11 498241)
(28829.2 -205242 1.41035e-19 1.87207e+06 -1.09922e-19 438669)
(26925.8 -221277 -1.57276e-19 1.58084e+06 9.46503e-20 371022)
(21239.3 -236433 1.88083e-11 1.24925e+06 7.94155e-11 293189)
(18788.7 -250929 -2.1121e-11 877652 -4.09691e-11 206871)
(12851.4 -265502 -4.96409e-13 462218 9.99683e-11 109631)
(10515.2 -281390 4.75415e-11 -724.319 -1.04731e-10 2259.44)
(3882.76 -303291 -2.44207e-11 -525818 5.08027e-11 -120447)
(-8357.29 -340828 2.5919e-11 -1.14778e+06 8.2684e-12 -266802)
(-65554.6 -418217 -1.18412e-12 -1.95677e+06 -5.95768e-11 -466691)
(-266600 -567252 -6.03239e-11 -3.13602e+06 -1.0643e-10 -785221)
(-799090 -770424 -6.0863e-12 -4.69851e+06 -6.55381e-12 -1.26868e+06)
(-217433 207041 1.76733e-11 21656.7 -2.96841e-11 -45179.1)
(-402310 354067 7.91052e-11 212740 5.15727e-11 -43747)
(-591916 448250 -2.82521e-11 63583 1.57305e-11 -121923)
(-762779 520919 2.14739e-11 -86832.3 1.75392e-11 -196064)
(-948208 590714 4.26586e-11 -235052 1.04087e-12 -273060)
(-1.15584e+06 674212 3.17876e-11 -386092 -4.11453e-11 -355829)
(-1.39083e+06 785906 3.31317e-11 -551209 5.86379e-12 -448164)
(-1.64441e+06 945589 2.51457e-11 -755739 1.05555e-11 -553881)
(-1.8285e+06 1.19623e+06 5.19049e-11 -1.09126e+06 3.51989e-11 -673790)
(-1.63593e+06 1.71373e+06 0 -2.08223e+06 0 -858038)
(-325865 320217 -1.8502e-12 -189354 -1.86697e-11 -118897)
(-439038 409697 -5.30525e-11 56532.9 -3.45087e-11 -88270.3)
(-586383 509843 3.52791e-11 2249.14 7.41308e-11 -134800)
(-720376 604650 -5.82586e-11 -105787 -5.52666e-11 -190653)
(-861001 694371 -5.87815e-12 -245441 -2.47285e-11 -255333)
(-1.01106e+06 791865 -5.43157e-11 -405005 -2.25138e-11 -326784)
(-1.16567e+06 911811 1.34005e-21 -591954 4.09794e-20 -405605)
(-1.30321e+06 1.07042e+06 -1.16225e-10 -832160 -3.1835e-11 -492778)
(-1.36712e+06 1.28023e+06 -6.13414e-20 -1.1788e+06 -3.27675e-20 -587519)
(-1.33468e+06 1.50952e+06 1.64659e-11 -1.77371e+06 -7.05505e-12 -717322)
(-394284 392067 2.4395e-11 -291182 -6.19648e-12 -158184)
(-479655 455761 -3.41828e-12 -72609 -3.32503e-11 -127446)
(-599788 538938 3.22575e-11 -79947.4 4.73665e-11 -156862)
(-707936 633126 3.79754e-11 -147801 7.26904e-11 -197478)
(-814872 728737 -3.37501e-11 -262214 -4.04701e-11 -248558)
(-921185 828781 1.66639e-11 -411209 -3.78101e-11 -307476)
(-1.02143e+06 940412 1.25845e-11 -595287 4.67769e-11 -373088)
(-1.10058e+06 1.06943e+06 3.6201e-11 -826360 3.10132e-11 -444679)
(-1.13466e+06 1.21059e+06 -1.78781e-11 -1.12136e+06 -6.3273e-11 -520619)
(-1.15322e+06 1.31852e+06 2.82419e-12 -1.53918e+06 -1.11703e-11 -621324)
(-444011 448282 -9.41836e-12 -362924 2.07698e-11 -186216)
(-506171 499864 3.23393e-11 -177607 5.1511e-11 -157795)
(-606271 564831 4.15137e-12 -167340 3.23662e-11 -178526)
(-695892 647160 3.39137e-11 -206412 4.61696e-11 -208224)
(-780962 736827 2.41932e-11 -293140 -1.42588e-11 -247870)
(-860582 830816 -5.48245e-12 -420722 -2.70343e-11 -295686)
(-930820 929450 2.99603e-11 -586767 1.16727e-11 -350213)
(-984364 1.03213e+06 6.07801e-11 -794431 2.02894e-11 -410491)
(-1.01174e+06 1.13233e+06 3.60601e-11 -1.04758e+06 3.19432e-11 -475228)
(-1.05064e+06 1.19753e+06 -2.15772e-11 -1.38806e+06 2.26645e-11 -562776)
(-482946 493221 -4.10057e-12 -417148 -1.71512e-11 -207714)
(-524561 538843 2.64707e-11 -259432 -1.74152e-11 -180921)
(-608616 589089 3.99086e-12 -246821 3.33893e-11 -197409)
(-684256 657081 3.45338e-11 -269811 4.79219e-11 -220169)
(-754973 735256 0 -333455 0 -251176)
(-818801 819009 -1.0271e-11 -436360 -5.7687e-11 -289653)
(-873243 905036 3.06658e-11 -577394 1.26347e-11 -334762)
(-914387 990153 -5.67324e-11 -757204 3.80325e-12 -385752)
(-937679 1.06953e+06 -2.36824e-26 -976992 -1.25415e-25 -441847)
(-985662 1.11589e+06 -4.56384e-12 -1.27923e+06 1.39028e-11 -522668)
(-513972 528962 9.34724e-12 -458750 -2.09986e-11 -224474)
(-538007 571922 3.05017e-11 -322803 1.73474e-11 -198648)
(-608609 611459 -2.67315e-11 -313433 1.72601e-11 -212779)
(-672729 666691 3.49904e-11 -328902 4.92665e-11 -231146)
(-733053 732441 -2.36526e-19 -376184 -2.1238e-19 -255978)
(-787169 804676 2.13579e-11 -457169 -4.62155e-11 -287155)
(-832347 879401 -2.13987e-11 -572730 4.49084e-11 -324249)
(-866232 952371 6.77547e-11 -724720 5.27274e-11 -367143)
(-886024 1.01952e+06 2.70661e-11 -915131 -1.63443e-11 -415651)
(-938284 1.05392e+06 -5.25153e-12 -1.19102e+06 1.51361e-11 -491377)
(-538549 557126 1.88361e-11 -490486 -4.16478e-11 -237470)
(-547858 599301 -6.2165e-11 -372050 -3.47106e-11 -212287)
(-607260 631385 -2.74339e-11 -367683 1.78258e-11 -224987)
(-661716 676526 -3.12603e-11 -380451 -1.65009e-11 -240500)
(-713602 731227 -3.14139e-11 -417088 -1.58562e-11 -260928)
(-760348 792658 -3.61864e-11 -480665 -4.6741e-11 -286388)
(-799568 857046 -3.64461e-11 -573981 -4.47957e-11 -316973)
(-828786 920163 5.92371e-11 -700450 -3.42833e-12 -352901)
(-845256 978318 -2.33175e-11 -863326 4.60026e-11 -394288)
(-899890 1.00287e+06 2.10156e-11 -1.11485e+06 1.28975e-11 -464939)
(-557793 578960 -9.34088e-12 -514338 2.12438e-11 -247415)
(-554909 621479 -5.99267e-11 -410419 1.33707e-12 -222768)
(-605048 648555 3.16284e-11 -411373 1.70695e-11 -234559)
(-651218 686226 -2.78172e-11 -423910 1.78847e-11 -248106)
(-695952 731936 -3.18658e-11 -454039 -1.61172e-11 -265383)
(-736915 783855 -8.74129e-12 -504915 -6.54643e-11 -286576)
(-771242 839131 -3.66416e-11 -579855 -4.65591e-11 -311792)
(-796799 893638 -2.79164e-11 -683936 1.71971e-11 -341708)
(-810919 943799 -6.91374e-11 -821534 -5.63475e-11 -376720)
(-867330 959400 3.05778e-11 -1.04826e+06 -4.03652e-11 -442059)
(-572515 595556 -2.96771e-11 -531743 9.07983e-12 -254829)
(-559608 639132 -3.51939e-11 -440096 -5.39277e-11 -230701)
(-602245 662931 6.40963e-11 -446343 3.42978e-11 -241982)
(-641604 695190 7.51925e-12 -460027 7.02795e-11 -254222)
(-680186 733944 2.8265e-11 -486357 -1.80631e-11 -269202)
(-715847 778148 -3.65539e-11 -527992 -4.93954e-11 -287040)
(-746317 825432 -3.25371e-11 -588676 -1.51551e-11 -308075)
(-769134 872176 -3.26748e-11 -674037 -1.44482e-11 -333039)
(-781280 915170 -6.55124e-21 -788767 3.43729e-20 -362319)
(-839523 922512 -4.29036e-11 -990840 6.70863e-12 -422391)
(-583546 607816 1.47223e-19 -543975 4.00524e-20 -260197)
(-562515 652899 -9.48904e-12 -462782 -1.10551e-10 -236607)
(-599143 674695 2.90104e-11 -474049 -1.90431e-11 -247660)
(-632818 703192 3.97511e-11 -489520 8.82495e-11 -259001)
(-666265 736692 6.90153e-11 -513899 6.80333e-11 -272346)
(-697706 774619 6.74748e-19 -549288 6.06888e-19 -287768)
(-724592 815352 2.87749e-11 -598859 -1.81835e-11 -305412)
(-744999 855444 4.38154e-19 -668822 3.33457e-19 -326266)
(-756142 891905 3.70045e-11 -763971 4.69534e-11 -350795)
(-816381 891895 -7.47856e-12 -942713 1.79569e-11 -405945)
(-591547 616620 1.52242e-11 -552084 -4.68344e-12 -263915)
(-564038 663483 -6.27308e-12 -479677 -7.44608e-11 -240857)
(-596018 684168 -3.61046e-11 -495651 -5.40733e-11 -251924)
(-625269 710053 3.51829e-12 -513332 3.61619e-11 -262754)
(-654471 739684 8.66365e-21 -536935 3.26827e-21 -274940)
(-682051 772879 6.60179e-11 -567912 3.25162e-11 -288453)
(-706234 808198 -3.34349e-20 -609369 -9.28469e-21 -303601)
(-724945 842645 6.64441e-11 -667214 3.05948e-11 -321267)
(-735291 873672 -1.32171e-20 -745762 -5.66877e-22 -341782)
(-797744 867356 1.66404e-11 -903628 -7.31131e-12 -392624)
(-597268 622747 -9.76908e-12 -557143 2.13323e-11 -266403)
(-564745 671514 2.99524e-11 -491903 -1.98293e-11 -243842)
(-593215 691749 -6.94671e-11 -512061 -7.21386e-11 -255064)
(-618914 715958 -2.97105e-11 -531964 1.94499e-11 -265587)
(-644769 742762 -3.67746e-11 -555632 -5.29284e-11 -277016)
(-669552 772215 -3.32858e-11 -584008 -1.6456e-11 -289283)
(-691252 803421 2.96001e-11 -619353 -1.89724e-11 -302447)
(-708482 833443 -3.34598e-11 -667696 -1.56126e-11 -317580)
(-718812 859925 -2.60847e-11 -733068 5.32951e-11 -335049)
(-783536 848491 -1.69544e-11 -873095 6.29794e-12 -382300)
(-601322 627010 9.692e-12 -560116 -2.22125e-11 -268024)
(-565045 677698 6.67987e-11 -500304 3.59686e-11 -245850)
(-591039 697901 -3.0178e-11 -524028 1.99166e-11 -257323)
(-614195 720995 0 -546128 0 -267767)
(-637411 745782 0 -570327 0 -278709)
(-659633 772587 -7.1749e-12 -596999 -7.21423e-11 -289992)
(-679667 800532 3.36257e-11 -628310 1.62735e-11 -301841)
(-696032 827056 -5.99925e-11 -669720 3.85141e-11 -315174)
(-706310 850196 3.37496e-11 -724627 1.5479e-11 -330216)
(-773317 834780 3.33293e-11 -850182 -1.3791e-11 -374654)
(-604445 630179 2.53032e-11 -562084 -2.78888e-11 -269199)
(-565537 682664 3.37401e-11 -505822 1.81949e-11 -247237)
(-589884 703087 3.69596e-11 -532219 5.58928e-11 -258947)
(-611082 725529 -3.37664e-11 -556093 -1.7524e-11 -269348)
(-632318 748841 -3.41912e-12 -581110 -3.70544e-11 -280022)
(-652871 773524 6.41595e-11 -607222 -2.87813e-12 -290791)
(-671304 799171 -3.02958e-11 -635727 1.9591e-11 -301622)
(-686852 823212 8.24942e-22 -672113 -6.47992e-21 -313607)
(-697606 843803 2.67787e-11 -719538 -5.49333e-11 -327033)
(-766712 825520 4.14129e-11 -833927 -3.40727e-11 -369378)
(-607260 633082 1.01661e-11 -564087 -2.21311e-11 -270311)
(-566677 687119 5.83352e-20 -509238 1.13109e-19 -248288)
(-590112 707803 9.6069e-12 -537232 1.15526e-10 -260157)
(-610066 729724 3.73917e-11 -562439 5.57453e-11 -270578)
(-629750 751926 -4.42602e-11 -588256 -1.29969e-10 -281078)
(-648614 775160 -3.75954e-11 -614118 -5.40873e-11 -291400)
(-666055 798978 7.07243e-12 -641282 7.31242e-11 -301693)
(-681187 821164 5.52276e-21 -674596 -3.37171e-20 -312873)
(-692095 840202 -4.13321e-11 -716672 -8.76653e-11 -325100)
(-763063 819999 -2.51264e-11 -823143 -6.70603e-12 -366048)
(-610533 636540 9.95158e-12 -567336 -2.37326e-11 -271816)
(-569136 691694 -3.44771e-11 -511522 -1.86862e-11 -249383)
(-592195 712509 -3.80063e-19 -539690 -3.72547e-19 -261204)
(-611173 733967 7.21905e-11 -565333 7.44268e-11 -271502)
(-629655 755184 3.78144e-11 -591786 5.56216e-11 -281871)
(-647442 777080 -7.57763e-11 -618070 -1.09577e-10 -292041)
(-663676 799664 -3.44456e-11 -644551 -1.69275e-11 -301899)
(-678168 820684 3.54866e-12 -676105 3.66151e-11 -312525)
(-689474 838670 -3.44659e-11 -715251 -1.62495e-11 -324167)
(-761859 817408 -3.37214e-11 -816782 1.32661e-11 -364302)
(-614942 641466 1.61324e-11 -573066 -4.8706e-12 -274156)
(-573453 697133 0 -513501 0 -250836)
(-596573 717705 3.48521e-11 -540144 1.85828e-11 -262319)
(-614976 738400 -3.48196e-11 -565312 -1.82245e-11 -272374)
(-632351 758591 7.29776e-11 -591935 7.42289e-11 -282528)
(-648707 779443 3.45779e-12 -618472 3.79963e-11 -292426)
(-664031 800892 -3.47573e-11 -645250 -1.71694e-11 -302142)
(-677993 821021 0 -676474 0 -312569)
(-689081 838634 0 -714240 0 -323843)
(-762365 816997 0 -813665 0 -363699)
(-621334 648811 -3.26389e-11 -582747 9.91209e-12 -277865)
(-580408 704120 -7.06324e-11 -516228 -3.84359e-11 -253070)
(-603827 723847 3.30027e-12 -539203 4.00069e-11 -263776)
(-621586 743387 3.52151e-11 -562463 1.85002e-11 -273242)
(-637844 762257 -3.51651e-11 -588651 -1.81457e-11 -283037)
(-653020 781790 -3.16266e-11 -615701 2.06968e-11 -292782)
(-666884 802345 0 -642975 0 -302275)
(-679782 821935 3.50665e-11 -674683 1.70787e-11 -312569)
(-690589 839347 0 -712948 0 -323893)
(-764017 817937 -1.7081e-11 -812783 6.60455e-12 -363877)
(-630466 659621 6.7528e-20 -597924 -2.07738e-20 -283475)
(-590631 713457 -4.22601e-11 -520640 -1.01606e-10 -256447)
(-614476 731449 -8.1564e-11 -537386 -1.59746e-10 -265814)